; This file was generated using the following command:
; /remote/au011/walter/programs/uvenv-ml/bin/ff_inter -f mapped.xtc -s mapped.tpr -i ../mapping.itp -temperature 298 -interactions comments -dists -plots -constraints 10000000 -max-dihedral 3
; 

; Please cite the following papers:
; {Brasnett, C; Fidlin, M; Duve, T; Thallmair, S; Marrink, S J; Grünewald, F;   {ChemRxiv  {2026;  {10.26434/chemrxiv.15001072/v1
; Kroon, P C; Grunewald, F; Barnoud, J; van Tilburg, M; Souza, P C; Wassenaar, T A; Marrink, S J;  elife 2024; 10.7554/elife.90627.2

[ moleculetype ]
ligand 1

[ atoms ]
 1 SX3  1 LIG B1   1 0.0 54.0
 2 TC5  1 LIG B2   2 0.0 36.0
 3 TC5  1 LIG B3   3 0.0 36.0
 4 TN2  1 LIG B4   4 0.0 36.0
 5 TN6a 1 LIG B5   5 0.0 36.0
 6 TC6  1 LIG B6   6 0.0 36.0
 7 TN3a  1 LIG B7   7 0.0 36.0
 8 TC5  1 LIG B8   8 0.0 36.0
 9 TC5  1 LIG B9   9 0.0 36.0
10 TC5  1 LIG B10 10 0.0 36.0
11 SP1  1 LIG B11 11 0.0 54.0
12 TN5r 1 LIG B12 12 0.0 36.0
13 TC2  1 LIG B13 13 0.0 36.0
14 TC2  1 LIG B14 14 0.0 36.0
15 Q2   1 LIG B15 15 1.0 72.0

[ bonds ]
  2   4  1 0.351    25000.000 ; bond7 (111358.409)
  3   4  1 0.304    25000.000 ; bond8 (88346.944)
  4   5  1 0.317    25000.000 ; bond10 (101641.254)
  6   7  1 0.43     25000.000 ; bond11 (32945.683)
  7   8  1 0.219    25000.000 ; bond6 (89055.712)
 10  11  1 0.231    25000.000 ; bond5 (109456.615)
 11  12  1 0.264    25000.000 ; bond4 (48826.668)
 12  15  1 0.276    25000.000 ; bond3 (52971.292)
 13  14  1 0.38     21855.409 ; bond9
 13  15  1 0.298     3410.414 ; bond1
 14  15  1 0.312     3679.208 ; bond2

[ constraints ]
 1  2 1 0.253 100000
 1  3 1 0.254 100000
 2  3 1 0.287 100000
 4  6 1 0.234 100000
 4  7 1 0.283 100000
 5  6 1 0.339 100000
 5  7 1 0.234 100000
 8  9 1 0.222 100000
 8 10 1 0.191 100000
 9 10 1 0.220 100000

[ angles ]
  1   2   4  2 108.235     53.434 ; angle1
  2   4   6  2  79.316     49.918 ; angle4
  2   4   7  2 158.759    367.239 ; angle2
  3   4   6  2 125.571     72.855 ; angle5
  3   4   7  2 117.581     61.355 ; angle3
  4   7   8  2  98.446     49.265 ; angle6
  5   7   8  2 104.138     46.327 ; angle7
  7   8   9  2 146.613    159.177 ; angle9
  7   8  10  2 149.409    186.119 ; angle8
  8  10  11  2 158.111     346.81 ; angle11
  9  10  11  2 136.772    102.756 ; angle10
 10  11  12  9   0.533   2000.000 ; angle12 (176.818 -> linear 0.231 & 0.264)
 11  12  15  2 114.185     57.924 ; angle13
 12  15  13  2 134.668       95.3 ; angle14
 12  15  14  2 140.785     120.59 ; angle15

[ dihedrals ]
; dihedral1
 4  7  8 10 11 1.0 16.164 -3.411 -8.789 1.374 26.026 ; dihedral1

; dihedral2
 1  2  4  6 11 1.0 16.134 3.492 3.553 6.369 -8.96 ; dihedral2

[ exclusions ]
 1  2  3  4  5  6  7 
 2  3  4  5  6  7  8 
 3  4  5  6  7  8  9 10 
 4  5  6  7  8  9 10 11 
 5  6  7  8  9 10 11 
 6  7  8  9 10 
 7  8  9 10 11 12 
 8  9 10 11 12 15 
 9 10 11 12 15 
10 11 12 15 
11 12 13 14 15 
12 13 14 15 
13 14 15 
14 15 
