CHEMBL3402763_90
15
    1LIG     B1    1   1.777   2.769   5.240
    1LIG     B2    2   1.860   2.662   5.454
    1LIG     B3    3   1.845   2.946   5.409
    1LIG     B4    4   1.946   2.905   5.669
    1LIG     B5    5   2.064   2.954   5.968
    1LIG     B6    6   1.983   2.695   5.766
    1LIG     B7    7   1.986   3.131   5.835
    1LIG     B8    8   2.171   3.207   5.776
    1LIG     B9    9   2.381   3.245   5.837
    1LIG    B10   10   2.287   3.275   5.640
    1LIG    B11   11   2.358   3.346   5.439
    1LIG    B12   12   2.502   3.422   5.214
    1LIG    B13   13   2.160   3.335   4.807
    1LIG    B14   14   2.380   3.073   4.795
    1LIG    B15   15   2.417   3.304   4.999
10 10 10
