[ B1 ]
29 31 60 30 28 59
[ B2 ]
28 59 27 58 26
[ B3 ]
26 32 61 31 60
[ B4 ]
21 20
[ B5 ]
24 25
[ B6 ]
23 22 56 57
[ B7 ]
19 18 54 55
[ B8 ]
17 33 62 16 53
[ B9 ]
16 53 15 52 14 51
[ B10 ]
14 51 13 33 62
[ B11 ]
12 50 10 11
[ B12 ]
9 8 48 49
[ B13 ]
2 37 38 1 34 35 36
[ B14 ]
4 39 40 5 41 42 43
[ B15 ]
3 63 6 44 45 7 46 47
