11
9
    1LIG     B1    1  -0.239   1.176   2.409
    1LIG     B2    2   0.032   1.102   2.443
    1LIG     B3    3  -0.100   1.022   2.667
    1LIG     B4    4   0.129   0.978   2.636
    1LIG     B5    5   0.237   0.818   2.832
    1LIG     B6    6   0.300   1.037   2.496
    1LIG     B7    7   0.581   1.216   2.426
    1LIG     B8    8   0.522   0.946   2.338
    1LIG     B9    9   0.725   1.070   2.287
10 10 10
