CAT-13a
10
    1LIG     B1    1   1.549   0.216  -0.205
    1LIG     B2    2   1.491   0.416  -0.291
    1LIG     B3    3   1.524   0.377  -0.029
    1LIG     B4    4   1.583   0.013  -0.250
    1LIG     B5    5   1.665  -0.133  -0.400
    1LIG     B6    6   1.563  -0.174  -0.205
    1LIG     B7    7   1.296  -0.284  -0.125
    1LIG     B8    8   1.187  -0.211   0.106
    1LIG     B9    9   1.444  -0.231   0.249
    1LIG    B10   10   1.535  -0.398  -0.079
10 10 10
