2f
12
    1LIG     B1    1   2.863   0.903   3.185
    1LIG     B2    2   2.672   0.822   3.144
    1LIG     B3    3   2.463   0.765   3.110
    1LIG     B4    4   2.316   1.010   3.120
    1LIG     B5    5   2.163   0.796   3.048
    1LIG     B6    6   2.031   1.000   3.059
    1LIG     B7    7   2.374   1.250   3.177
    1LIG     B8    8   2.130   1.315   3.136
    1LIG     B9    9   1.953   1.215   3.083
    1LIG    B10   10   1.748   1.175   3.086
    1LIG    B11   11   1.610   1.053   3.211
    1LIG    B12   12   1.555   1.132   2.972
10 10 10
