8
8
    1LIG     B1    1   3.235   4.291   3.654
    1LIG     B2    2   3.519   4.212   3.508
    1LIG     B3    3   3.336   4.037   3.658
    1LIG     B4    4   3.357   3.866   3.688
    1LIG     B5    5   3.539   3.890   3.575
    1LIG     B6    6   3.200   3.769   3.940
    1LIG     B7    7   3.251   3.577   3.708
    1LIG     B8    8   3.130   3.524   3.910
10 10 10
