18637-1
13
    1LIG     B1    1   2.298   1.110   2.993
    1LIG     B2    2   1.984   1.163   3.309
    1LIG     B3    3   1.866   0.875   3.330
    1LIG     B4    4   2.142   0.958   3.156
    1LIG     B5    5   2.138   0.720   3.101
    1LIG     B6    6   2.042   0.530   3.154
    1LIG     B7    7   2.180   0.426   3.014
    1LIG     B8    8   2.518   0.525   3.039
    1LIG     B9    9   2.451   0.724   2.915
    1LIG    B10   10   2.358   0.290   3.174
    1LIG    B11   11   2.419   0.107   3.323
    1LIG    B12   12   2.662   0.340   3.190
    1LIG    B13   13   2.923   0.382   3.184
10 10 10
