; This file was generated using the following command:
; /remote/au011/walter/programs/uvenv-ml/bin/ff_inter -f mapped.xtc -s mapped.tpr -i ../mapping.itp -temperature 298 -interactions comments -dists -plots -constraints 10000000 -max-dihedral 3
; 

; Please cite the following papers:
; {Brasnett, C; Fidlin, M; Duve, T; Thallmair, S; Marrink, S J; Grünewald, F;   {ChemRxiv  {2026;  {10.26434/chemrxiv.15001072/v1
; Kroon, P C; Grunewald, F; Barnoud, J; van Tilburg, M; Souza, P C; Wassenaar, T A; Marrink, S J;  elife 2024; 10.7554/elife.90627.2

[ moleculetype ]
ligand 1

[ atoms ]
 1 SN4ah 1 LIG B1   1 0.0 54.0
 2 SN4a  1 LIG B2   2 0.0 54.0
 3 SN6d  1 LIG B3   3 0.0 54.0
 4 TN4a  1 LIG B4   4 0.0 36.0
 5 TN4d  1 LIG B5   5 0.0 36.0
 6 TP1a  1 LIG B6   6 0.0 36.0
 7 TC4   1 LIG B7   7 0.0 36.0
 8 TC5   1 LIG B8   8 0.0 36.0
 9 TN2a  1 LIG B9   9 0.0 36.0
10 TC5   1 LIG B10 10 0.0 36.0
11 TN2a  1 LIG B11 11 0.0 36.0
12 TN4d  1 LIG B12 12 0.0 36.0
13 SN4a  1 LIG B13 13 0.0 54.0

[ bonds ]
  1   4  1 0.317    25000.000 ; bond5 (84311.315)
  2   5  1 0.515    25000.000 ; bond10 (77827.669)
  3   4  1 0.335    25000.000 ; bond8 (168244.776)
  5   6  1 0.217    25000.000 ; bond4 (160999.369)
  6   7  1 0.222    25000.000 ; bond3 (127026.847)
  7  12  1 0.521    25000.000 ; bond9 (50637.688)
  8   9  1 0.246    25000.000 ; bond1 (39233.738)
  8  10  1 0.316    25000.000 ; bond7 (223052.332)
 10  11  1 0.244    25000.000 ; bond2 (74038.289)
 12  13  1 0.262    25000.000 ; bond6 (86665.345)

[ constraints ]
 2  3 1 0.311 100000
 2  4 1 0.301 100000
 3  5 1 0.388 100000
 4  5 1 0.245 100000
 7  8 1 0.353 100000
 7 10 1 0.275 100000
 8 12 1 0.279 100000
10 12 1 0.308 100000

[ angles ]
  1   4   2  2  90.546     48.206 ; angle1
  1   4   5  2 129.664     81.341 ; angle2
  3   5   6  2  85.487     48.502 ; angle3
  4   5   6  2 138.184    108.431 ; angle4
  5   6   7  2  92.107     48.267 ; angle5
  6   7   8  2  98.041     49.164 ; angle6
  6   7  10  2 104.041     51.217 ; angle7
  7   8   9  2  81.976      49.16 ; angle8
  9   8  12  2 159.356    387.791 ; angle9
  7  10  11  2 151.773    215.479 ; angle10
 11  10  12  2  79.441     49.877 ; angle11
  8  12  13  2 113.543     57.353 ; angle12
 10  12  13  9   0.460   2000.000 ; angle13 (177.042 -> linear 0.308 & 0.262)

[ dihedrals ]
; dihedral1
 5  6  7  8 11 1.0 2.427 5.235 8.162 -5.956 -6.188 ; dihedral1

; dihedral2
 4  5  6  7 11 1.0 87.774 66.305 -46.588 -1.461 27.429 ; dihedral2

[ exclusions ]
 1  2  3  4  5  6  7 
 2  3  4  5  6  7 
 3  4  5  6  7 
 4  5  6  7 10 
 5  6  7  8 10 11 12 
 6  7  8  9 10 11 12 
 7  8  9 10 11 12 13 
 8  9 10 11 12 13 
 9 10 11 12 13 
10 11 12 13 
11 12 13 
12 13 
