; This file was generated using the following command:
; /remote/au011/walter/programs/uvenv-ml/bin/ff_inter -f mapped.xtc -s mapped.tpr -i ../mapping.itp -temperature 298 -interactions comments -dists -plots -constraints 10000000 -max-dihedral 3
; 

; Please cite the following papers:
; {Brasnett, C; Fidlin, M; Duve, T; Thallmair, S; Marrink, S J; Grünewald, F;   {ChemRxiv  {2026;  {10.26434/chemrxiv.15001072/v1
; Kroon, P C; Grunewald, F; Barnoud, J; van Tilburg, M; Souza, P C; Wassenaar, T A; Marrink, S J;  elife 2024; 10.7554/elife.90627.2

[ moleculetype ]
ligand 1

[ atoms ]
 1 SX4  1 LIG B1   1 0.0 36.0
 2 TC5  1 LIG B2   2 0.0 36.0
 3 SX4  1 LIG B3   3 0.0 36.0
 4 TN5a 1 LIG B4   4 0.0 36.0
 5 TC5  1 LIG B5   5 0.0 36.0
 6 TN6a 1 LIG B6   6 0.0 36.0
 7 TN2  1 LIG B7   7 0.0 36.0
 8 TC5  1 LIG B8   8 0.0 36.0
 9 TC5  1 LIG B9   9 0.0 36.0
10 TC5  1 LIG B10 10 0.0 36.0
11 TN6a 1 LIG B11 11 0.0 36.0
12 TC4  1 LIG B12 12 0.0 36.0
13 TN5a 1 LIG B13 13 0.0 36.0

[ bonds ]
  2   4  1 0.227    25000.000 ; bond3 (122186.486)
  2   5  1 0.369    25000.000 ; bond6 (69739.549)
  4   6  1 0.312    25000.000 ; bond4 (137570.718)
  5   7  1 0.425    25000.000 ; bond5 (62341.374)
  7   8  1 0.219    25000.000 ; bond2 (94731.242)
 10  11  1 0.339    25000.000 ; bond1 (85618.45)
 10  13  1 0.231    25000.000 ; bond7 (130348.95)

[ constraints ]
 1  2 1 0.229 100000
 1  3 1 0.263 100000
 2  3 1 0.228 100000
 4  5 1 0.252 100000
 4  7 1 0.289 100000
 5  6 1 0.267 100000
 6  7 1 0.248 100000
 8  9 1 0.221 100000
 8 10 1 0.191 100000
 9 10 1 0.221 100000
11 12 1 0.293 100000
11 13 1 0.180 100000
12 13 1 0.290 100000

[ angles ]
  1   2   4  2 132.891     89.799 ; angle1
  3   2   4  2 157.742    335.967 ; angle2
  2   4   7  2 157.966    342.484 ; angle3
  4   7   8  2 101.131     50.068 ; angle4
  6   7   8  2 104.330     51.348 ; angle5
  7   8   9  2 146.583    158.924 ; angle7
  7   8  10  2 149.504    187.168 ; angle6
  8  10  11  2 133.619     91.972 ; angle9
  8  10  13  2 162.221    516.987 ; angle10
  9  10  11  2 162.478    531.771 ; angle8
 10  13  12  9   0.557   2000.000 ; angle11 (182.630 -> linear 0.231 & 0.290)

[ dihedrals ]
; dihedral1
 4  7  8 10 11 1.0 16.74 -3.888 3.047 4.122 18.486 ; dihedral1

; dihedral2
 1  2  4  7 11 1.0 410.248 19.08 -259.195 -110.759 55.793 ; dihedral2

; dihedral3
 8 10 11 13 11 1.0 186.969 8.21 89.721 99.534 -159.775 ; dihedral3

[ exclusions ]
 1  2  3  4  5  6  7  8 
 2  3  4  5  6  7  8  9 10 
 3  4  5  6  7  8 
 4  5  6  7  8  9 10 13 
 5  6  7  8  9 10 
 6  7  8  9 10 11 13 
 7  8  9 10 11 12 13 
 8  9 10 11 12 13 
 9 10 11 12 13 
10 11 12 13 
11 12 13 
12 13 
