CHEMBL3402747_3400
13
    1LIG     B1    1   1.838   2.902   5.239
    1LIG     B2    2   1.842   2.829   5.455
    1LIG     B3    3   1.719   2.685   5.328
    1LIG     B4    4   1.919   2.924   5.640
    1LIG     B5    5   1.962   2.720   5.781
    1LIG     B6    6   2.037   2.921   5.939
    1LIG     B7    7   1.977   3.135   5.829
    1LIG     B8    8   2.172   3.206   5.776
    1LIG     B9    9   2.381   3.245   5.836
    1LIG    B10   10   2.287   3.274   5.638
    1LIG    B11   11   2.236   3.327   5.319
    1LIG    B12   12   2.481   3.413   5.184
    1LIG    B13   13   2.366   3.346   5.442
10 10 10
