; This file was generated using the following command:
; /remote/au011/walter/programs/uvenv-ml/bin/ff_inter -f mapped.xtc -s mapped.tpr -i ../mapping.itp -temperature 298 -interactions comments -dists -plots -constraints 10000000 -max-dihedral 3
; 

; Please cite the following papers:
; Kroon, P C; Grunewald, F; Barnoud, J; van Tilburg, M; Souza, P C; Wassenaar, T A; Marrink, S J;  elife 2024; 10.7554/elife.90627.2
; {Brasnett, C; Fidlin, M; Duve, T; Thallmair, S; Marrink, S J; Grünewald, F;   {ChemRxiv  {2026;  {10.26434/chemrxiv.15001072/v1

[ moleculetype ]
ligand 1

[ atoms ]
 1 SQ5n  1 LIG B1   1 -1.0 66.0
 2 TC6   1 LIG B2   2  0.0  0.0
 3 TC4   1 LIG B3   3  0.0 60.0
 4 TC5   1 LIG B4   4  0.0  0.0
 5 TC5   1 LIG B5   5  0.0 60.0
 6 SX3   1 LIG B6   6  0.0 66.0
 7 SN4ah 1 LIG B7   7  0.0 54.0
 8 TX3   1 LIG B8   8  0.0 36.0
 9 TC4   1 LIG B9   9  0.0 36.0
10 TC4   1 LIG B10 10  0.0 36.0
11 SC5   1 LIG B11 11  0.0 54.0

[ bonds ]
  1   6  1 0.644    25000.000 ; bond5 (70432.876)
  3   7  1 0.256    25000.000 ; bond1 (58440.732)
  7  11  1 0.315    25000.000 ; bond2 (27654.263)
  8  11  1 0.334    25000.000 ; bond3 (170886.492)
  9  10  1 0.498    25000.000 ; bond4 (54774.568)

[ constraints ]
 1  3 1 0.345 100000
 1  5 1 0.646 100000
 3  5 1 0.553 100000
 3  6 1 0.397 100000
 5  6 1 0.307 100000
 8  9 1 0.269 100000
 8 10 1 0.262 100000
 9 11 1 0.348 100000
10 11 1 0.350 100000

[ angles ]
  1   3   7  2 107.617     53.062 ; angle4
  6   3   7  2 101.740     50.284 ; angle5
  3   7  11  2 145.478     20.827 ; angle1
  7  11   9  2 131.413     39.227 ; angle2
  7  11  10  2 133.947     41.756 ; angle3

[ dihedrals ]
; dihedral1
 1  3  7 11 11 1.0 7.094 13.336 9.503 -10.601 1.857 ; dihedral1

; dihedral2
 3  7 11 10 11 1.0 29.912 3.147 -23.463 -9.39 19.141 ; dihedral2

[ virtual_sites3 ]
 2  1  3  5 4 -0.060074 0.387007 -0.031671
 4  5  6  3 4 -0.212394 0.534920 -0.054561

[ exclusions ]
 1  2  3  4  5  6  7 11 
 2  3  4  5  6  7 11 
 3  4  5  6  7  8  9 10 11 
 4  5  6  7 11 
 5  6  7 
 6  7 11 
 7  8  9 10 11 
 8  9 10 11 
 9 10 11 
10 11 
