61
11
    1LIG     B1    1   0.326  -4.921   0.657
    1LIG     B2    2   0.122  -5.047   0.659
    1LIG     B3    3   0.047  -4.768   0.523
    1LIG     B4    4  -0.078  -5.033   0.616
    1LIG     B5    5  -0.248  -5.217   0.655
    1LIG     B6    6  -0.310  -4.941   0.533
    1LIG     B7    7  -0.035  -4.617   0.711
    1LIG     B8    8  -0.667  -4.471   0.759
    1LIG     B9    9  -0.556  -4.619   0.954
    1LIG    B10   10  -0.606  -4.361   0.529
    1LIG    B11   11  -0.347  -4.531   0.690
10 10 10
