10
8
    1LIG     B1    1   3.258   3.682   3.746
    1LIG     B2    2   3.182   3.739   3.981
    1LIG     B3    3   3.119   3.483   3.827
    1LIG     B4    4   3.359   3.864   3.691
    1LIG     B5    5   3.537   3.886   3.569
    1LIG     B6    6   3.341   4.036   3.666
    1LIG     B7    7   3.230   4.283   3.652
    1LIG     B8    8   3.515   4.210   3.505
10 10 10
