; This file was generated using the following command:
; /remote/au011/walter/programs/uvenv-ml/bin/ff_inter -f mapped.xtc -s mapped.tpr -i ../mapping.itp -temperature 298 -interactions comments -dists -plots -constraints 10000000 -max-dihedral 3
; 

; Please cite the following papers:
; Kroon, P C; Grunewald, F; Barnoud, J; van Tilburg, M; Souza, P C; Wassenaar, T A; Marrink, S J;  elife 2024; 10.7554/elife.90627.2
; {Brasnett, C; Fidlin, M; Duve, T; Thallmair, S; Marrink, S J; Grünewald, F;   {ChemRxiv  {2026;  {10.26434/chemrxiv.15001072/v1

[ moleculetype ]
ligand 1

[ atoms ]
1 TN4a 1 LIG B1 1 0.0 36.0
2 TC5  1 LIG B2 2 0.0 36.0
3 SX3  1 LIG B3 3 0.0 54.0
4 TC5  1 LIG B4 4 0.0 48.0
5 TC5  1 LIG B5 5 0.0 36.0
6 TC5  1 LIG B6 6 0.0  0.0
7 TN6d 1 LIG B7 7 0.0 48.0
8 TN3  1 LIG B8 8 0.0 48.0

[ bonds ]
  1   4  1 0.226    25000.000 ; bond1 (121158.809)
  2   4  1 0.367    25000.000 ; bond2 (63985.613)
  4   8  1 0.404    25000.000 ; bond4 (128047.322)
  5   7  1 0.501    25000.000 ; bond3 (82906.669)

[ constraints ]
1 2 1 0.253 100000
1 3 1 0.255 100000
2 3 1 0.305 100000
4 5 1 0.216 100000
4 7 1 0.441 100000
5 8 1 0.331 100000
7 8 1 0.329 100000

[ angles ]
  3   1   4  9   0.470   2000.000 ; angle1 (178.887 -> linear 0.255 & 0.226)
  1   4   5  2 120.921     65.496 ; angle2
  1   4   7  2 137.990    107.616 ; angle3

[ dihedrals ]
; dihedral1
3 2 4 7 11 1.0 9.151 -3.42 -11.327 6.243 8.123 ; dihedral1

[ virtual_sites3 ]
6 4 7 8 4 0.312401 0.111440 -0.071013

[ exclusions ]
1 2 3 4 5 6 7 8 
2 3 4 5 6 7 8 
3 4 5 6 7 8 
4 5 6 7 8 
5 6 7 8 
6 7 8 
7 8 
