30
12
    1LIG     B1    1  -0.051   2.682   0.877
    1LIG     B2    2  -0.004   2.841   0.779
    1LIG     B3    3   0.230   2.907   0.619
    1LIG     B4    4   0.059   3.056   0.701
    1LIG     B5    5  -0.092   3.256   0.758
    1LIG     B6    6  -0.132   3.054   0.821
    1LIG     B7    7   0.458   2.545   0.674
    1LIG     B8    8   0.415   2.680   0.514
    1LIG     B9    9   0.340   2.679   0.791
    1LIG    B10   10   0.490   2.285   0.735
    1LIG    B11   11  -0.095   2.537   1.026
    1LIG    B12   12  -0.112   2.362   1.182
10 10 10
