; This file was generated using the following command:
; /remote/au011/walter/programs/uvenv-ml/bin/ff_inter -f mapped.xtc -s mapped.tpr -i ../mapping.itp -temperature 298 -interactions comments -dists -plots -constraints 10000000 -max-dihedral 3
; 

; Please cite the following papers:
; {Brasnett, C; Fidlin, M; Duve, T; Thallmair, S; Marrink, S J; Grünewald, F;   {ChemRxiv  {2026;  {10.26434/chemrxiv.15001072/v1
; Kroon, P C; Grunewald, F; Barnoud, J; van Tilburg, M; Souza, P C; Wassenaar, T A; Marrink, S J;  elife 2024; 10.7554/elife.90627.2

[ moleculetype ]
ligand 1

[ atoms ]
 1 TN2a 1 LIG B1   1 0.0 36.0
 2 TN4a 1 LIG B2   2 0.0 48.0
 3 TN4d 1 LIG B3   3 0.0 48.0
 4 TN4a 1 LIG B4   4 0.0  0.0
 5 TN5d 1 LIG B5   5 0.0 48.0
 6 TN4a 1 LIG B6   6 0.0 36.0
 7 TC5  1 LIG B7   7 0.0 36.0
 8 TC5  1 LIG B8   8 0.0 36.0
 9 TC5  1 LIG B9   9 0.0 36.0
10 P4   1 LIG B10 10 0.0 72.0
11 SC3  1 LIG B11 11 0.0 54.0
12 SC3  1 LIG B12 12 0.0 54.0

[ bonds ]
  1   2  1 0.218    25000.000 ; bond4 (61750.544)
  1  11  1 0.25     25000.000 ; bond1 (77986.669)
  2   5  1 0.417    25000.000 ; bond8 (141892.264)
  3   6  1 0.441    25000.000 ; bond7 (90868.398)
  3   8  1 0.327    25000.000 ; bond5 (68516.465)
  3   9  1 0.327    25000.000 ; bond6 (59399.522)
  7  10  1 0.268    25000.000 ; bond3 (54773.638)
 11  12  1 0.246    25000.000 ; bond2 (160056.612)

[ constraints ]
 2  3 1 0.292 100000
 2  6 1 0.252 100000
 3  5 1 0.495 100000
 5  6 1 0.215 100000
 7  8 1 0.214 100000
 7  9 1 0.213 100000
 8  9 1 0.287 100000

[ angles ]
  2   1  11  2 156.357    299.707 ; angle1
  1   2   3  2 136.324    101.074 ; angle2
  1   2   6  2 108.122     53.365 ; angle3
  2   3   9  2  80.684     49.499 ; angle4
  5   3   9  2 146.096     41.469 ; angle9
  8   7  10  2 130.497     83.356 ; angle5
  9   7  10  2 131.785     86.695 ; angle6
  3   9   7  2 110.400     54.869 ; angle7
  1  11  12  2  95.976      48.73 ; angle8

[ dihedrals ]
; dihedral1
 2  3  9  7 11 1.0 9.577 -0.296 -23.556 1.042 20.394 ; dihedral1

[ virtual_sites3 ]
 4  3  5  2 4 0.448333 0.116714 0.010411

[ exclusions ]
 1  2  3  4  5  6  8  9 11 12 
 2  3  4  5  6  7  8  9 11 12 
 3  4  5  6  7  8  9 10 11 12 
 4  5  6  7  8  9 11 12 
 5  6  8  9 11 
 6  7  8  9 11 12 
 7  8  9 10 
 8  9 10 
 9 10 
11 12 
