50
11
    1LIG     B1    1   0.317  -4.951   0.666
    1LIG     B2    2   0.118  -5.072   0.665
    1LIG     B3    3   0.050  -4.761   0.522
    1LIG     B4    4  -0.312  -4.947   0.537
    1LIG     B5    5  -0.074  -5.024   0.614
    1LIG     B6    6  -0.229  -5.219   0.658
    1LIG     B7    7  -0.033  -4.615   0.711
    1LIG     B8    8  -0.667  -4.469   0.760
    1LIG     B9    9  -0.556  -4.619   0.954
    1LIG    B10   10  -0.606  -4.361   0.529
    1LIG    B11   11  -0.347  -4.534   0.689
10 10 10
