; This file was generated using the following command:
; /remote/au011/walter/programs/uvenv-ml/bin/ff_inter -f mapped.xtc -s mapped.tpr -i ../mapping.itp -temperature 298 -interactions comments -dists -plots -constraints 10000000 -max-dihedral 3
; 

; Please cite the following papers:
; Kroon, P C; Grunewald, F; Barnoud, J; van Tilburg, M; Souza, P C; Wassenaar, T A; Marrink, S J;  elife 2024; 10.7554/elife.90627.2
; {Brasnett, C; Fidlin, M; Duve, T; Thallmair, S; Marrink, S J; Grünewald, F;   {ChemRxiv  {2026;  {10.26434/chemrxiv.15001072/v1

[ moleculetype ]
ligand 1

[ atoms ]
 1 SQ5n  1 LIG B1   1 -1.0 66.0
 2 TN6d  1 LIG B2   2  0.0  0.0
 3 TC4   1 LIG B3   3  0.0 60.0
 4 SX3   1 LIG B4   4  0.0 66.0
 5 TC5   1 LIG B5   5  0.0  0.0
 6 TC5   1 LIG B6   6  0.0 60.0
 7 SN4ah 1 LIG B7   7  0.0 54.0
 8 TX3   1 LIG B8   8  0.0 36.0
 9 TC4   1 LIG B9   9  0.0 36.0
10 TC4   1 LIG B10 10  0.0 36.0
11 SC5   1 LIG B11 11  0.0 54.0

[ bonds ]
  1   4  1 0.634    25000.000 ; bond5 (79999.34)
  3   7  1 0.255    25000.000 ; bond1 (67790.64)
  7  11  1 0.315    25000.000 ; bond2 (28011.781)
  8  11  1 0.334    25000.000 ; bond3 (166544.415)
  9  10  1 0.499    25000.000 ; bond4 (54492.635)

[ constraints ]
 1  3 1 0.358 100000
 1  6 1 0.609 100000
 3  4 1 0.407 100000
 3  6 1 0.553 100000
 4  6 1 0.309 100000
 8  9 1 0.269 100000
 8 10 1 0.262 100000
 9 11 1 0.348 100000
10 11 1 0.350 100000

[ angles ]
  1   3   7  2 110.046      54.62 ; angle5
  4   3   7  2 104.045     51.219 ; angle4
  3   7  11  2 145.408     19.275 ; angle1
  7  11   9  2 135.469     44.847 ; angle2
  7  11  10  2 129.980     40.019 ; angle3

[ dihedrals ]
; dihedral1
 1  3  7 11 11 1.0 12.923 6.961 -12.322 -2.268 17.086 ; dihedral1

; dihedral2
 3  7 11 10 11 1.0 26.498 1.062 -30.562 -6.336 23.109 ; dihedral2

[ virtual_sites3 ]
 2  1  3  6 4 -0.062113 0.397103 -0.036239
 5  6  4  3 4 -0.159961 0.514419 -0.062287

[ exclusions ]
 1  2  3  4  5  6  7 11 
 2  3  4  5  6  7 11 
 3  4  5  6  7  8  9 10 11 
 4  5  6  7 11 
 5  6  7 11 
 6  7 
 7  8  9 10 11 
 8  9 10 11 
 9 10 11 
10 11 
