17124-1
12
    1LIG     B1    1   1.984   1.159   3.314
    1LIG     B2    2   2.439   0.108   3.308
    1LIG     B3    3   2.668   0.394   3.168
    1LIG     B4    4   2.444   0.743   2.928
    1LIG     B5    5   2.520   0.540   3.042
    1LIG     B6    6   2.368   0.295   3.168
    1LIG     B7    7   2.185   0.428   3.010
    1LIG     B8    8   2.044   0.529   3.149
    1LIG     B9    9   2.136   0.720   3.096
    1LIG    B10   10   2.141   0.957   3.157
    1LIG    B11   11   1.863   0.872   3.325
    1LIG    B12   12   2.294   1.113   2.996
10 10 10
