1oiy
12
    1LIG     B1    1   0.231   2.907   0.619
    1LIG     B2    2  -0.004   2.841   0.779
    1LIG     B3    3   0.059   3.056   0.701
    1LIG     B4    4  -0.092   3.256   0.758
    1LIG     B5    5  -0.132   3.054   0.821
    1LIG     B6    6  -0.051   2.682   0.877
    1LIG     B7    7  -0.095   2.537   1.026
    1LIG     B8    8  -0.112   2.362   1.182
    1LIG     B9    9   0.459   2.548   0.694
    1LIG    B10   10   0.582   2.352   0.801
    1LIG    B11   11   0.420   2.677   0.527
    1LIG    B12   12   0.336   2.685   0.801
10 10 10
