21
12
    1LIG     B1    1  -0.004   2.841   0.779
    1LIG     B2    2   0.228   2.907   0.616
    1LIG     B3    3   0.059   3.056   0.701
    1LIG     B4    4  -0.092   3.256   0.758
    1LIG     B5    5  -0.132   3.054   0.821
    1LIG     B6    6   0.344   2.729   0.629
    1LIG     B7    7   0.486   2.595   0.521
    1LIG     B8    8   0.392   2.566   0.719
    1LIG     B9    9   0.271   2.468   0.931
    1LIG    B10   10  -0.051   2.682   0.877
    1LIG    B11   11  -0.095   2.537   1.026
    1LIG    B12   12  -0.112   2.362   1.182
10 10 10
