3flz
12
    1LIG     B1    1   2.863   0.903   3.186
    1LIG     B2    2   2.672   0.822   3.145
    1LIG     B3    3   2.463   0.765   3.110
    1LIG     B4    4   2.316   1.010   3.120
    1LIG     B5    5   2.163   0.797   3.048
    1LIG     B6    6   2.031   1.000   3.059
    1LIG     B7    7   2.130   1.315   3.136
    1LIG     B8    8   2.374   1.250   3.177
    1LIG     B9    9   1.954   1.215   3.083
    1LIG    B10   10   1.746   1.181   3.077
    1LIG    B11   11   1.600   1.057   3.188
    1LIG    B12   12   1.557   1.160   2.963
10 10 10
