; This file was generated using the following command:
; /remote/au011/walter/programs/uvenv-ml/bin/ff_inter -f mapped.xtc -s mapped.tpr -i ../mapping.itp -temperature 298 -interactions comments -dists -plots -constraints 10000000 -max-dihedral 3
; 

; Please cite the following papers:
; {Brasnett, C; Fidlin, M; Duve, T; Thallmair, S; Marrink, S J; Grünewald, F;   {ChemRxiv  {2026;  {10.26434/chemrxiv.15001072/v1
; Kroon, P C; Grunewald, F; Barnoud, J; van Tilburg, M; Souza, P C; Wassenaar, T A; Marrink, S J;  elife 2024; 10.7554/elife.90627.2

[ moleculetype ]
ligand 1

[ atoms ]
 1 SN4ah 1 LIG B1   1 0.0 54.0
 2 SC3   1 LIG B2   2 0.0 54.0
 3 TN6d  1 LIG B3   3 0.0 48.0
 4 TN6a  1 LIG B4   4 0.0  0.0
 5 TN6a  1 LIG B5   5 0.0 72.0
 6 TC5   1 LIG B6   6 0.0  0.0
 7 TN6a  1 LIG B7   7 0.0  0.0
 8 TN2   1 LIG B8   8 0.0 72.0
 9 TN2a  1 LIG B9   9 0.0 60.0
10 TC5   1 LIG B10 10 0.0 36.0
11 TC5   1 LIG B11 11 0.0 36.0
12 TC5   1 LIG B12 12 0.0 36.0

[ bonds ]
  1   2  1 0.211    25000.000 ; bond1 (142094.437)
  2   3  1 0.223    25000.000 ; bond2 (81341.899)
  3   9  1 0.672    25000.000 ; bond4 (73531.906)
  9  10  1 0.216    25000.000 ; bond3 (121487.511)

[ constraints ]
 3  5 1 0.308 100000
 3  8 1 0.497 100000
 5  8 1 0.517 100000
 5  9 1 0.469 100000
 8  9 1 0.433 100000
10 11 1 0.222 100000
10 12 1 0.222 100000
11 12 1 0.252 100000

[ angles ]
  1   2   3  9   0.514   2000.000 ; angle1 (180.770 -> linear 0.211 & 0.223)
  2   3   5  2 165.254    743.999 ; angle2
  2   3   8  2  90.737      48.21 ; angle7
  5   9  10  2 117.792     61.592 ; angle5
  8   9  10  2 132.885     79.933 ; angle6
  9  10  11  2 145.640    116.451 ; angle3
  9  10  12  2 144.064    107.547 ; angle4

[ dihedrals ]
; dihedral1
 2  3  8  9 11 1.0 29.438 11.345 0.665 8.281 -9.664 ; dihedral1

; dihedral2
 5  9 10 11 11 1.0 24.195 -16.207 -22.485 17.752 32.356 ; dihedral2

[ virtual_sites3 ]
 4  3  8  5 4 0.483027 0.346400 -0.009784
 6  5  9  8 4 0.559762 -0.067083 -0.002099
 7  9  8  5 4 0.513890 -0.195505 0.011414

[ exclusions ]
 1  2  3  4  5  6  8 
 2  3  4  5  6  7  8  9 
 3  4  5  6  7  8  9 10 
 4  5  6  7  8  9 10 
 5  6  7  8  9 10 11 12 
 6  7  8  9 10 11 12 
 7  8  9 10 11 12 
 8  9 10 11 12 
 9 10 11 12 
10 11 12 
11 12 
