; This file was generated using the following command:
; /remote/au011/walter/programs/uvenv-ml/bin/ff_inter -f mapped.xtc -s mapped.tpr -i ../mapping.itp -temperature 298 -interactions comments -dists -plots -constraints 10000000 -max-dihedral 3
; 

; Please cite the following papers:
; {Brasnett, C; Fidlin, M; Duve, T; Thallmair, S; Marrink, S J; Grünewald, F;   {ChemRxiv  {2026;  {10.26434/chemrxiv.15001072/v1
; Kroon, P C; Grunewald, F; Barnoud, J; van Tilburg, M; Souza, P C; Wassenaar, T A; Marrink, S J;  elife 2024; 10.7554/elife.90627.2

[ moleculetype ]
ligand 1

[ atoms ]
 1 TC5  1 LIG B1   1 0.0 36.0
 2 TN6a 1 LIG B2   2 0.0 36.0
 3 SC4  1 LIG B3   3 0.0 54.0
 4 TC5  1 LIG B4   4 0.0 36.0
 5 TC5  1 LIG B5   5 0.0 36.0
 6 TC5  1 LIG B6   6 0.0 36.0
 7 TP1a 1 LIG B7   7 0.0 36.0
 8 TN1  1 LIG B8   8 0.0 36.0
 9 TN6d 1 LIG B9   9 0.0 36.0
10 TN4a 1 LIG B10 10 0.0 36.0
11 TC5  1 LIG B11 11 0.0 36.0
12 TC5  1 LIG B12 12 0.0 36.0
13 TC5  1 LIG B13 13 0.0 36.0

[ bonds ]
  1   4  1 0.223    25000.000 ; bond1 (90973.752)
  6   7  1 0.313    25000.000 ; bond4 (27057.402)
  6  10  1 0.249    25000.000 ; bond2 (49935.018)
  7   9  1 0.403    25000.000 ; bond6 (115654.884)
  7  11  1 0.312    24919.777 ; bond7
  8  10  1 0.38     25000.000 ; bond5 (121450.582)
 10  11  1 0.25     25000.000 ; bond3 (36538.257)

[ constraints ]
 1  2 1 0.193 100000
 1  3 1 0.300 100000
 2  3 1 0.301 100000
 4  5 1 0.224 100000
 4  6 1 0.194 100000
 5  6 1 0.223 100000
 7  8 1 0.264 100000
 7 10 1 0.287 100000
 8  9 1 0.295 100000
 9 10 1 0.268 100000
11 12 1 0.224 100000
11 13 1 0.224 100000
12 13 1 0.252 100000

[ angles ]
  2   1   4  2 147.205    164.306 ; angle2
  3   1   4  2 141.029    121.861 ; angle1
  1   4   5  2 146.502    158.246 ; angle3
  1   4   6  2 149.458    186.658 ; angle4
  4   6  10  2 126.652     74.889 ; angle5
  5   6  10  2 162.978    119.894 ; angle6
  6  10   9  2 135.972     99.789 ; angle8
  6  10  11  2  78.169     50.317 ; angle7
  9  10  11  2 135.614     98.515 ; angle9
 10  11  12  2 141.500     24.869 ; angle10
 10  11  13  2 124.556     71.066 ; angle11

[ dihedrals ]
; dihedral1
 3  1  4  5 11 1.0 217.336 -24.35 -489.353 29.613 373.7 ; dihedral1

; dihedral2
 4  6 10  9 11 1.0 13.089 -0.684 49.229 -4.546 -25.341 ; dihedral2

; dihedral3
 9 10 11 13 11 1.0 17.278 -0.238 51.249 -4.503 -27.881 ; dihedral3

[ exclusions ]
 1  2  3  4  5  6  7  8  9 10 11 
 2  3  4  5  6  7 10 
 3  4  5  6 10 
 4  5  6  7  8  9 10 11 12 13 
 5  6  7  8  9 10 11 12 13 
 6  7  8  9 10 11 12 13 
 7  8  9 10 11 12 13 
 8  9 10 11 12 13 
 9 10 11 12 13 
10 11 12 13 
11 12 13 
12 13 
