CAT-4m
13
    1LIG     B1    1   1.557   0.194  -0.213
    1LIG     B2    2   1.523   0.369  -0.287
    1LIG     B3    3   1.524   0.388   0.014
    1LIG     B4    4   1.581  -0.015  -0.250
    1LIG     B5    5   1.652  -0.170  -0.395
    1LIG     B6    6   1.552  -0.200  -0.198
    1LIG     B7    7   1.285  -0.298  -0.107
    1LIG     B8    8   1.177  -0.229   0.124
    1LIG     B9    9   1.438  -0.234   0.262
    1LIG    B10   10   1.541  -0.299   0.022
    1LIG    B11   11   1.521  -0.500  -0.111
    1LIG    B12   12   1.457  -0.697  -0.197
    1LIG    B13   13   1.675  -0.659  -0.075
10 10 10
