; 
; ****  GMX general run parameters for an atomistic simulation  ****
;
; Run parameters are according to [R. Alessandri, P.C.T. Souza, et al. JCTC, 2019, 15, 5448].
;
; You may want to double-check whether:
;
;   coulombtype
;   Tcoupl
;   Pcoupl
; 
; suit your needs.
;
; RA
;


integrator              = md
dt                      = 0.002             ; ps 
nsteps                  = 5000000           ; total time:  10 ns
tinit                   = 0                 ; initial time, ps
nstcomm                 = 100               ; freq. for cm-motion removal
ld_seed                 = -1

; Bond constraints
constraints             = h-bonds           ; constrain all bonds 
constraint_algorithm    = lincs             ; default
lincs-order             = 4                 ; default

; X/V/F/E outputs
nstxout                 = 0
nstvout                 = 0
nstfout                 = 0
nstlog                  = 10000
nstenergy               = 10000
nstxout-compressed      = 10000

; Neighbour list
nstlist                 = 5                 ; Freq. to update neighbour list

; Electrostatics
coulombtype             = PME               ; Particle Mesh Ewald for long-range electrostatics
rcoulomb                = 1.2
pme_order               = 4                 ; cubic interpolation
fourierspacing          = 0.16              ; grid spacing for FFT

; van der Waals interactions
vdwtype                 = Cut-off           ; Van der Waals interactions
rvdw                    = 1.2               ; nm (LJ cut-off)
DispCorr                = EnerPres          ; use dispersion correction

; Temperature coupling 
Tcoupl                  = V-rescale         ; modified Berendsen thermostat
tc-grps                 = System            ; 
tau_t                   = 1.0               ; ps
ref_t                   = 298.15            ; K

; Energy monitoring
energygrps              = System

; Pressure coupling 
Pcoupl                  = Parrinello-Rahman
Pcoupltype              = isotropic         ; 
tau_p                   = 5.0               ; ps
compressibility         = 5e-5              ; 1/bar
ref_p                   = 1.0               ; bar
refcoord_scaling        = all

; Generate velocites in the beginning
continuation            = yes               ; continue from npt equilibration
gen_vel                 = no                ; continue from npt equilibration
gen_temp                = 298.0
gen_seed                = -1                ; -1 = the seed is calculated from the process ID number

