integrator                   = steep
nsteps                       = 30000
nstxout                      = 0
nstvout                      = 0
nstlog                       = 0
nstxout-compressed           = 0
verlet-buffer-tolerance      = -1
rlist                        = 1.35
coulombtype                  = Reaction-Field
rcoulomb                     = 1.1
epsilon-r                    = 15
epsilon-rf                   = 0
vdw-type                     = Cut-off
vdw-modifier                 = Potential-shift
rvdw                         = 1.1
lincs-order                  = 6
