CHEMBL1084115
10
    1LIG     B1    1   1.191   0.034  -0.097
    1LIG     B2    2   1.188  -0.189  -0.008
    1LIG     B3    3   1.283  -0.289   0.095
    1LIG     B4    4   1.061  -0.360  -0.025
    1LIG     B5    5   1.193  -0.587   0.191
    1LIG     B6    6   1.439  -0.458   0.159
    1LIG     B7    7   1.478  -0.349   0.416
    1LIG     B8    8   1.532  -0.586   0.368
    1LIG     B9    9   1.279  -0.806   0.189
    1LIG    B10   10   1.318  -1.002   0.114
10 10 10
