; This file was generated using the following command:
; /remote/au011/walter/programs/uvenv-ml/bin/ff_inter -f mapped.xtc -s mapped.tpr -i ../mapping.itp -temperature 298 -interactions comments -dists -plots -constraints 10000000 -max-dihedral 3
; 

; Please cite the following papers:
; {Brasnett, C; Fidlin, M; Duve, T; Thallmair, S; Marrink, S J; Grünewald, F;   {ChemRxiv  {2026;  {10.26434/chemrxiv.15001072/v1
; Kroon, P C; Grunewald, F; Barnoud, J; van Tilburg, M; Souza, P C; Wassenaar, T A; Marrink, S J;  elife 2024; 10.7554/elife.90627.2

[ moleculetype ]
ligand 1

[ atoms ]
1 TN6d 1 LIG B1 1 0.0 48.0
2 TN3  1 LIG B2 2 0.0 48.0
3 TC5  1 LIG B3 3 0.0  0.0
4 SC5  1 LIG B4 4 0.0 66.0
5 TC5  1 LIG B5 5 0.0 36.0
6 TN3  1 LIG B6 6 0.0 36.0
7 TC5  1 LIG B7 7 0.0 36.0

[ bonds ]
  1   5  1 0.501    25000.000 ; bond2 (92146.413)
  2   4  1 0.434    25000.000 ; bond1 (164451.513)

[ constraints ]
1 2 1 0.332 100000
1 4 1 0.471 100000
2 5 1 0.329 100000
4 5 1 0.252 100000
4 6 1 0.278 100000
4 7 1 0.326 100000
6 7 1 0.258 100000

[ angles ]
  5   4   6  2 112.668      56.61 ; angle1
  5   4   7  2 156.588     305.31 ; angle2

[ dihedrals ]
; dihedral1
5 4 6 7 11 1.0 24.759 10.015 -1.197 6.157 -6.061 ; dihedral1

[ virtual_sites3 ]
3 4 1 2 4 0.304136 0.168350 -0.025775

[ exclusions ]
1 2 3 4 5 6 7 
2 3 4 5 6 7 
3 4 5 6 7 
4 5 6 7 
5 6 7 
6 7 
