4a
7
    1LIG     B1    1   3.236   4.297   3.646
    1LIG     B2    2   3.516   4.205   3.494
    1LIG     B3    3   3.337   4.043   3.665
    1LIG     B4    4   3.334   3.842   3.724
    1LIG     B5    5   3.533   3.886   3.576
    1LIG     B6    6   3.264   3.576   3.757
    1LIG     B7    7   3.156   3.700   3.957
10 10 10
