; This file was generated using the following command:
; /remote/au011/walter/programs/uvenv-ml/bin/ff_inter -f mapped.xtc -s mapped.tpr -i ../mapping.itp -temperature 298 -interactions comments -dists -plots -constraints 10000000 -max-dihedral 3
; 

; Please cite the following papers:
; Kroon, P C; Grunewald, F; Barnoud, J; van Tilburg, M; Souza, P C; Wassenaar, T A; Marrink, S J;  elife 2024; 10.7554/elife.90627.2
; {Brasnett, C; Fidlin, M; Duve, T; Thallmair, S; Marrink, S J; Grünewald, F;   {ChemRxiv  {2026;  {10.26434/chemrxiv.15001072/v1

[ moleculetype ]
ligand 1

[ atoms ]
 1 TC5  1 LIG B1   1 0.0 36.0
 2 TC5  1 LIG B2   2 0.0 36.0
 3 TC5  1 LIG B3   3 0.0 36.0
 4 SQ4p 1 LIG B4   4 1.0 54.0
 5 TP2a 1 LIG B5   5 0.0 48.0
 6 TN3  1 LIG B6   6 0.0  0.0
 7 SC3  1 LIG B7   7 0.0 66.0
 8 TP2a 1 LIG B8   8 0.0 48.0
 9 TN3d  1 LIG B9   9 0.0 36.0
10 TC5  1 LIG B10 10 0.0 36.0
11 SC4  1 LIG B11 11 0.0 54.0
12 TC5  1 LIG B12 12 0.0 36.0

[ bonds ]
  1   4  1 0.259    16794.414 ; bond2
  4   5  1 0.23      17303.14 ; bond1
  8   9  1 0.231    25000.000 ; bond3 (33096.398)
  9  10  1 0.224    22085.869 ; bond4

[ constraints ]
 1  2 1 0.222 100000
 1  3 1 0.224 100000
 2  3 1 0.252 100000
 5  7 1 0.371 100000
 5  8 1 0.299 100000
 7  8 1 0.340 100000
10 11 1 0.302 100000
10 12 1 0.223 100000
11 12 1 0.328 100000

[ angles ]
  2   1   4  2 139.048    112.206 ; angle1
  3   1   4  2 136.824    102.955 ; angle2
  1   4   5  2  84.790     48.603 ; angle3
  4   5   7  2 104.384     51.372 ; angle9
  4   5   8  2 153.179    236.765 ; angle10
  5   8   9  2  82.705     48.992 ; angle8
  7   8   9  2  91.885     48.254 ; angle7
  8   9  10  2 117.868     14.487 ; angle4
  9  10  11  2 137.845    107.014 ; angle5
  9  10  12  2 145.435    149.754 ; angle6

[ dihedrals ]
; dihedral1
 3  1  4  5 11 1.0 18.631 24.807 -17.594 -30.029 15.626 ; dihedral1

; dihedral2
 8  9 10 11 11 1.0 14.381 6.235 9.671 -6.622 -13.167 ; dihedral2

[ virtual_sites3 ]
 6  5  7  8 4 0.433301 0.210815 0.987464

[ exclusions ]
 1  2  3  4  5  6  7  8 
 2  3  4  5  6 
 3  4  5 
 4  5  6  7  8  9 
 5  6  7  8  9 10 12 
 6  7  8  9 10 11 12 
 7  8  9 10 
 8  9 10 11 12 
 9 10 11 12 
10 11 12 
11 12 
