2
8
    1LIG     B1    1  -0.241   1.177   2.408
    1LIG     B2    2   0.030   1.104   2.441
    1LIG     B3    3  -0.101   1.022   2.668
    1LIG     B4    4   0.145   0.948   2.677
    1LIG     B5    5   0.301   1.038   2.494
    1LIG     B6    6   0.497   1.084   2.413
    1LIG     B7    7   0.634   0.959   2.286
    1LIG     B8    8   0.684   1.195   2.361
10 10 10
