45-flipped
13
    1LIG     B1    1  -0.854   0.856  -1.105
    1LIG     B2    2  -0.762   0.977  -0.817
    1LIG     B3    3  -0.756   1.029  -1.120
    1LIG     B4    4  -0.746   1.116  -1.355
    1LIG     B5    5  -0.644   1.213  -1.088
    1LIG     B6    6  -0.577   1.405  -1.262
    1LIG     B7    7  -0.407   1.401  -1.071
    1LIG     B8    8  -0.414   1.474  -0.879
    1LIG     B9    9  -0.578   1.203  -0.699
    1LIG    B10   10  -0.480   0.967  -0.811
    1LIG    B11   11  -0.395   1.186  -0.703
    1LIG    B12   12  -0.178   1.002  -0.797
    1LIG    B13   13  -0.152   1.296  -0.638
10 10 10
