; This file was generated using the following command:
; /remote/au011/walter/programs/uvenv-ml/bin/ff_inter -f mapped.xtc -s mapped.tpr -i ../mapping.itp -temperature 298 -interactions comments -dists -plots -constraints 10000000 -max-dihedral 3
; 

; Please cite the following papers:
; {Brasnett, C; Fidlin, M; Duve, T; Thallmair, S; Marrink, S J; Grünewald, F;   {ChemRxiv  {2026;  {10.26434/chemrxiv.15001072/v1
; Kroon, P C; Grunewald, F; Barnoud, J; van Tilburg, M; Souza, P C; Wassenaar, T A; Marrink, S J;  elife 2024; 10.7554/elife.90627.2

[ moleculetype ]
ligand 1

[ atoms ]
 1 TC5  1 LIG B1   1 0.0 36.0
 2 TN6a 1 LIG B2   2 0.0 36.0
 3 TC5  1 LIG B3   3 0.0 36.0
 4 SC6r 1 LIG B4   4 0.0 54.0
 5 TC5  1 LIG B5   5 0.0 36.0
 6 TC5  1 LIG B6   6 0.0 36.0
 7 TC5  1 LIG B7   7 0.0 36.0
 8 TP1a 1 LIG B8   8 0.0 36.0
 9 TN1  1 LIG B9   9 0.0 36.0
10 TN6d 1 LIG B10 10 0.0 36.0
11 TQ3p 1 LIG B11 11 1.0 36.0
12 SC2  1 LIG B12 12 0.0 54.0

[ bonds ]
  1   5  1 0.224    25000.000 ; bond2 (92665.388)
  3   4  1 0.398    25000.000 ; bond1 (96495.647)
  7   8  1 0.309    25000.000 ; bond5 (30200.167)
  7  11  1 0.248    25000.000 ; bond3 (39644.588)
  8  10  1 0.403    25000.000 ; bond7 (103541.839)
  8  12  1 0.365     9504.759 ; bond8
  9  11  1 0.38     25000.000 ; bond6 (115571.833)
 11  12  1 0.265    25000.000 ; bond4 (44697.54)

[ constraints ]
 1  2 1 0.194 100000
 1  3 1 0.188 100000
 2  3 1 0.192 100000
 5  6 1 0.224 100000
 5  7 1 0.194 100000
 6  7 1 0.223 100000
 8  9 1 0.266 100000
 8 11 1 0.287 100000
 9 10 1 0.295 100000
10 11 1 0.268 100000

[ angles ]
  2   1   5  2 147.349    165.596 ; angle2
  3   1   5  2 150.832    202.929 ; angle1
  1   3   4  2 150.896    203.744 ; angle4
  2   3   4  2 147.415    166.193 ; angle3
  1   5   6  2 146.292     156.51 ; angle5
  1   5   7  2 149.607    188.316 ; angle6
  5   7  11  2 128.747     79.244 ; angle7
  6   7  11  2 140.500     27.906 ; angle8
  7  11  10  2 135.598     98.459 ; angle10
  7  11  12  2  94.220     48.464 ; angle9
 10  11  12  2 124.539     71.037 ; angle11

[ dihedrals ]
; dihedral1
 3  1  5  6 11 1.0 335.777 -97.148 -702.052 69.377 536.133 ; dihedral1

; dihedral2
 5  7 11 12 11 1.0 9.403 6.913 -2.352 -3.542 4.87 ; dihedral2

[ exclusions ]
 1  2  3  4  5  6  7  8  9 10 11 12 
 2  3  4  5  6  7  8 11 
 3  4  5  6  7  8 11 
 4  5  7 
 5  6  7  8  9 10 11 12 
 6  7  8  9 10 11 12 
 7  8  9 10 11 12 
 8  9 10 11 12 
 9 10 11 12 
10 11 12 
11 12 
