CAT-24
12
    1LIG     B1    1   1.560   0.185  -0.211
    1LIG     B2    2   1.526   0.359  -0.287
    1LIG     B3    3   1.536   0.332  -0.097
    1LIG     B4    4   1.531   0.523   0.247
    1LIG     B5    5   1.585  -0.024  -0.250
    1LIG     B6    6   1.642  -0.175  -0.405
    1LIG     B7    7   1.554  -0.210  -0.203
    1LIG     B8    8   1.291  -0.312  -0.110
    1LIG     B9    9   1.182  -0.221   0.115
    1LIG    B10   10   1.440  -0.229   0.257
    1LIG    B11   11   1.545  -0.308   0.023
    1LIG    B12   12   1.567  -0.563  -0.040
10 10 10
