; This file was generated using the following command:
; /remote/au011/walter/programs/uvenv-ml/bin/ff_inter -f mapped.xtc -s mapped.tpr -i ../mapping.itp -temperature 298 -interactions comments -dists -plots -constraints 10000000 -max-dihedral 3
; 

; Please cite the following papers:
; {Brasnett, C; Fidlin, M; Duve, T; Thallmair, S; Marrink, S J; Grünewald, F;   {ChemRxiv  {2026;  {10.26434/chemrxiv.15001072/v1
; Kroon, P C; Grunewald, F; Barnoud, J; van Tilburg, M; Souza, P C; Wassenaar, T A; Marrink, S J;  elife 2024; 10.7554/elife.90627.2

[ moleculetype ]
ligand 1

[ atoms ]
 1 TC5  1 LIG B1   1 0.0 36.0
 2 TN6a 1 LIG B2   2 0.0 36.0
 3 SX4  1 LIG B3   3 0.0 54.0
 4 TC5  1 LIG B4   4 0.0 36.0
 5 TC5  1 LIG B5   5 0.0 36.0
 6 TC5  1 LIG B6   6 0.0 36.0
 7 SC2  1 LIG B7   7 0.0 54.0
 8 TP1a 1 LIG B8   8 0.0 36.0
 9 TN1  1 LIG B9   9 0.0 36.0
10 TN6d 1 LIG B10 10 0.0 36.0
11 TN4a 1 LIG B11 11 0.0 36.0

[ bonds ]
  1   4  1 0.225    25000.000 ; bond3 (84274.504)
  6   8  1 0.309    25000.000 ; bond6 (27756.416)
  6  11  1 0.248    25000.000 ; bond1 (48161.92)
  7   8  1 0.366     9208.657 ; bond7
  7  11  1 0.265    25000.000 ; bond2 (36752.485)
  8  10  1 0.403    25000.000 ; bond4 (105492.385)
  9  11  1 0.38     25000.000 ; bond5 (108822.169)

[ constraints ]
 1  2 1 0.193 100000
 1  3 1 0.226 100000
 2  3 1 0.229 100000
 4  5 1 0.224 100000
 4  6 1 0.194 100000
 5  6 1 0.224 100000
 8  9 1 0.267 100000
 8 11 1 0.287 100000
 9 10 1 0.293 100000
10 11 1 0.269 100000

[ angles ]
  2   1   4  2 147.271    164.895 ; angle1
  3   1   4  2 147.052    162.953 ; angle2
  1   4   5  2 146.253    156.191 ; angle4
  1   4   6  2 149.691    189.261 ; angle3
  4   6  11  2 129.611     81.216 ; angle6
  5   6  11  2 141.500      31.11 ; angle5
  6  11   7  2  94.301     48.475 ; angle9
  6  11  10  2 135.721     98.893 ; angle7
  7  11  10  2 124.574     71.097 ; angle8

[ dihedrals ]
; dihedral1
 5  6 11 10 11 1.0 42.993 -7.246 -8.108 1.846 3.404 ; dihedral1

; dihedral2
 3  1  4  5 11 1.0 286.571 -26.711 -567.836 -2.491 425.11 ; dihedral2

[ exclusions ]
 1  2  3  4  5  6  7  8  9 10 11 
 2  3  4  5  6  8 11 
 3  4  5  6  8 11 
 4  5  6  7  8  9 10 11 
 5  6  7  8  9 10 11 
 6  7  8  9 10 11 
 7  8  9 10 11 
 8  9 10 11 
 9 10 11 
10 11 
