CAT-17g
11
    1LIG     B1    1   1.560   0.197  -0.204
    1LIG     B2    2   1.525   0.375  -0.269
    1LIG     B3    3   1.537   0.352  -0.042
    1LIG     B4    4   1.585  -0.010  -0.249
    1LIG     B5    5   1.656  -0.158  -0.402
    1LIG     B6    6   1.563  -0.197  -0.202
    1LIG     B7    7   1.632  -0.528  -0.071
    1LIG     B8    8   1.304  -0.320  -0.119
    1LIG     B9    9   1.186  -0.241   0.107
    1LIG    B10   10   1.440  -0.234   0.253
    1LIG    B11   11   1.555  -0.301   0.019
10 10 10
