; This file was generated using the following command:
; /remote/au011/walter/programs/uvenv-ml/bin/ff_inter -f mapped.xtc -s mapped.tpr -i ../mapping.itp -temperature 298 -interactions comments -dists -plots -constraints 10000000 -max-dihedral 3
; 

; Please cite the following papers:
; {Brasnett, C; Fidlin, M; Duve, T; Thallmair, S; Marrink, S J; Grünewald, F;   {ChemRxiv  {2026;  {10.26434/chemrxiv.15001072/v1
; Kroon, P C; Grunewald, F; Barnoud, J; van Tilburg, M; Souza, P C; Wassenaar, T A; Marrink, S J;  elife 2024; 10.7554/elife.90627.2

[ moleculetype ]
ligand 1

[ atoms ]
 1 TN4a 1 LIG B1   1 0.0 48.0
 2 TN4d 1 LIG B2   2 0.0 48.0
 3 TN4a 1 LIG B3   3 0.0  0.0
 4 TN4a 1 LIG B4   4 0.0 36.0
 5 TN5d 1 LIG B5   5 0.0 48.0
 6 TC5  1 LIG B6   6 0.0 36.0
 7 TC5  1 LIG B7   7 0.0 36.0
 8 TC5  1 LIG B8   8 0.0 36.0
 9 P5   1 LIG B9   9 0.0 72.0
10 TN2a 1 LIG B10 10 0.0 36.0
11 SC3  1 LIG B11 11 0.0 54.0
12 SC3  1 LIG B12 12 0.0 54.0

[ bonds ]
  1   5  1 0.417    25000.000 ; bond7 (159212.741)
  1  10  1 0.218    25000.000 ; bond4 (77674.55)
  2   4  1 0.441    25000.000 ; bond6 (116106.981)
  2   6  1 0.221    25000.000 ; bond5 (127493.378)
  8   9  1 0.26      13630.71 ; bond3
 10  11  1 0.22     25000.000 ; bond1 (94695.166)
 11  12  1 0.23     25000.000 ; bond2 (122447.167)

[ constraints ]
 1  2 1 0.292 100000
 1  4 1 0.252 100000
 2  5 1 0.494 100000
 4  5 1 0.215 100000
 6  7 1 0.223 100000
 6  8 1 0.192 100000
 7  8 1 0.222 100000

[ angles ]
  2   1  10  2 136.059    100.104 ; angle1
  4   1  10  2 108.497     53.597 ; angle2
  1   2   6  2  98.682     49.326 ; angle3
  5   2   6  2 152.721    229.467 ; angle4
  2   6   7  2 145.282      148.6 ; angle6
  2   6   8  2 150.591    199.908 ; angle5
  6   8   9  2 146.800    160.767 ; angle8
  7   8   9  2 143.334    135.176 ; angle7
  1  10  11  2 157.851    339.113 ; angle9
 10  11  12  9   0.511   2000.000 ; angle10 (185.827 -> linear 0.220 & 0.230)

[ dihedrals ]
; dihedral1
 1  2  6  8 11 1.0 90.678 -8.969 -190.988 -12.386 157.717 ; dihedral1

[ virtual_sites3 ]
 3  2  5  1 4 0.448014 0.116826 0.007155

[ exclusions ]
 1  2  3  4  5  6  7  8  9 10 11 12 
 2  3  4  5  6  7  8  9 10 11 12 
 3  4  5  6  7  8  9 10 11 12 
 4  5  6  7  8 10 11 12 
 5  6  7  8 10 11 
 6  7  8  9 10 11 
 7  8  9 10 
 8  9 10 
10 11 12 
11 12 
