18629-1
9
    1LIG     B1    1   2.295   1.112   2.996
    1LIG     B2    2   1.983   1.159   3.313
    1LIG     B3    3   1.864   0.871   3.327
    1LIG     B4    4   2.142   0.956   3.157
    1LIG     B5    5   2.139   0.720   3.100
    1LIG     B6    6   2.040   0.529   3.144
    1LIG     B7    7   2.513   0.295   3.269
    1LIG     B8    8   2.544   0.503   3.015
    1LIG     B9    9   2.240   0.428   3.029
10 10 10
