2v
10
    1LIG     B1    1   2.600   0.813   3.144
    1LIG     B2    2   2.378   0.910   3.114
    1LIG     B3    3   2.163   0.797   3.048
    1LIG     B4    4   2.088   1.011   3.073
    1LIG     B5    5   2.374   1.250   3.178
    1LIG     B6    6   2.130   1.315   3.136
    1LIG     B7    7   1.954   1.215   3.083
    1LIG     B8    8   1.708   1.093   3.200
    1LIG     B9    9   1.504   1.081   3.052
    1LIG    B10   10   1.669   1.222   2.938
10 10 10
