; This file was generated using the following command:
; /remote/au011/walter/programs/uvenv-ml/bin/ff_inter -f mapped.xtc -s mapped.tpr -i ../mapping.itp -temperature 298 -interactions comments -dists -plots -constraints 10000000 -max-dihedral 3
; 

; Please cite the following papers:
; {Brasnett, C; Fidlin, M; Duve, T; Thallmair, S; Marrink, S J; Grünewald, F;   {ChemRxiv  {2026;  {10.26434/chemrxiv.15001072/v1
; Kroon, P C; Grunewald, F; Barnoud, J; van Tilburg, M; Souza, P C; Wassenaar, T A; Marrink, S J;  elife 2024; 10.7554/elife.90627.2

[ moleculetype ]
ligand 1

[ atoms ]
 1 TN6  1 LIG B1   1 0.0 48.0
 2 TC5  1 LIG B2   2 0.0  0.0
 3 TC5  1 LIG B3   3 0.0 48.0
 4 TC5  1 LIG B4   4 0.0 48.0
 5 TC4  1 LIG B5   5 0.0 36.0
 6 TC5  1 LIG B6   6 0.0 36.0
 7 TC5  1 LIG B7   7 0.0 36.0
 8 TC5  1 LIG B8   8 0.0 36.0
 9 TC5  1 LIG B9   9 0.0 36.0
10 TN6a 1 LIG B10 10 0.0 36.0
11 TN2  1 LIG B11 11 0.0 36.0
12 P3  1 LIG B12 12 0.0 72.0
13 SN6d 1 LIG B13 13 0.0 54.0

[ bonds ]
  1   3  1 0.414    25000.000 ; bond8 (146638.995)
  3  13  1 0.305    25000.000 ; bond1 (35056.929)
  4   5  1 0.534    25000.000 ; bond9 (49475.112)
  4  13  1 0.466    16458.479 ; bond6
  5   6  1 0.327    25000.000 ; bond2 (71647.324)
  5   7  1 0.328    25000.000 ; bond3 (66515.781)
  8   9  1 0.259    25000.000 ; bond4 (89274.62)
  8  10  1 0.331    25000.000 ; bond7 (73044.224)
 12  13  1 0.343    25000.000 ; bond5 (29468.5)

[ constraints ]
 1  4 1 0.376 100000
 1  5 1 0.325 100000
 3  4 1 0.304 100000
 3  5 1 0.382 100000
 6  7 1 0.287 100000
 6  8 1 0.214 100000
 7  8 1 0.214 100000
 9 10 1 0.252 100000
 9 11 1 0.277 100000
10 11 1 0.334 100000

[ angles ]
  5   3  13  2 148.372    175.282 ; angle1
  1   5   7  2  95.380      48.63 ; angle2
  3   5   6  2 155.447    219.193 ; angle8
  5   7   8  2 110.270     54.777 ; angle3
  6   8   9  2 157.545    330.396 ; angle5
  7   8   9  2 110.828     55.178 ; angle4
  8   9  11  2 159.488     392.58 ; angle6
  3  13  12  2 111.983     56.057 ; angle7

[ dihedrals ]
; dihedral1
 4  3 13 12 11 1.0 7.026 -0.197 -6.637 -1.498 2.428 ; dihedral1

; dihedral2
 1  5  7  6 11 1.0 2.245 0.979 11.335 0.31 -3.849 ; dihedral2

; dihedral3
 7  8  9 10 11 1.0 22.672 9.315 -0.363 5.758 -6.305 ; dihedral3

[ virtual_sites3 ]
 2  3  4  1 4 0.087230 0.493741 0.025050

[ exclusions ]
 1  2  3  4  5  6  7  8 13 
 2  3  4  5  6  7 12 13 
 3  4  5  6  7  8 12 13 
 4  5  6  7 12 13 
 5  6  7  8  9 10 13 
 6  7  8  9 10 11 13 
 7  8  9 10 11 13 
 8  9 10 11 
 9 10 11 
10 11 
12 13 
