27
13
    1LIG     B1    1  -0.855   0.860  -1.104
    1LIG     B2    2  -0.754   1.032  -1.117
    1LIG     B3    3  -0.632   1.214  -1.085
    1LIG     B4    4  -0.740   1.118  -1.353
    1LIG     B5    5  -0.762   0.977  -0.815
    1LIG     B6    6  -0.452   0.966  -0.809
    1LIG     B7    7  -0.576   1.203  -0.704
    1LIG     B8    8  -0.370   1.147  -0.727
    1LIG     B9    9  -0.205   1.328  -0.652
    1LIG    B10   10  -0.040   1.148  -0.716
    1LIG    B11   11   0.038   1.452  -0.603
    1LIG    B12   12  -0.104   1.451  -1.033
    1LIG    B13   13  -0.459   1.434  -1.152
10 10 10
