18638-1
12
    1LIG     B1    1   2.294   1.115   2.995
    1LIG     B2    2   1.984   1.159   3.314
    1LIG     B3    3   1.865   0.872   3.326
    1LIG     B4    4   2.137   0.721   3.096
    1LIG     B5    5   2.143   0.958   3.157
    1LIG     B6    6   2.052   0.529   3.157
    1LIG     B7    7   2.184   0.427   3.008
    1LIG     B8    8   2.436   0.745   2.922
    1LIG     B9    9   2.529   0.515   3.029
    1LIG    B10   10   2.404   0.307   3.147
    1LIG    B11   11   2.449   0.110   3.297
    1LIG    B12   12   2.828   0.438   3.104
10 10 10
