; This file was generated using the following command:
; /remote/au011/walter/programs/uvenv-ml/bin/ff_inter -f mapped.xtc -s mapped.tpr -i ../mapping.itp -temperature 298 -interactions comments -dists -plots -constraints 10000000 -max-dihedral 3
; 

; Please cite the following papers:
; Kroon, P C; Grunewald, F; Barnoud, J; van Tilburg, M; Souza, P C; Wassenaar, T A; Marrink, S J;  elife 2024; 10.7554/elife.90627.2
; {Brasnett, C; Fidlin, M; Duve, T; Thallmair, S; Marrink, S J; Grünewald, F;   {ChemRxiv  {2026;  {10.26434/chemrxiv.15001072/v1

[ moleculetype ]
ligand 1

[ atoms ]
 1 TC5  1 LIG B1   1 0.0 36.0
 2 SX3  1 LIG B2   2 0.0 54.0
 3 SX4  1 LIG B3   3 0.0 36.0
 4 SN2a 1 LIG B4   4 0.0 90.0
 5 TC5  1 LIG B5   5 0.0  0.0
 6 TC5  1 LIG B6   6 0.0  0.0
 7 SP3  1 LIG B7   7 0.0 90.0
 8 SX4  1 LIG B8   8 0.0 54.0
 9 TN6  1 LIG B9   9 0.0  0.0
10 TC2  1 LIG B10 10 0.0 72.0

[ bonds ]
  1   4  1 0.266    15713.659 ; bond1
  7   8  1 0.246    25000.000 ; bond2 (97839.087)

[ constraints ]
 1  2 1 0.237 100000
 1  3 1 0.228 100000
 2  3 1 0.272 100000
 4  7 1 0.507 100000
 4 10 1 0.365 100000
 7 10 1 0.554 100000

[ angles ]
  2   1   4  2 132.442     36.213 ; angle1
  3   1   4  2 138.829     31.592 ; angle2
  1   4   7  2 151.028    205.442 ; angle4
  1   4  10  2 107.451     52.965 ; angle3
  4   7   8  2  90.755      48.21 ; angle5
  8   7  10  2  88.229     48.248 ; angle6

[ dihedrals ]
; dihedral1
 3  1  4 10 11 1.0 9.006 8.253 2.208 -5.197 4.186 ; dihedral1

[ virtual_sites3 ]
 5  7  4 10 4 0.894550 -0.343832 -0.116532
 6 10  7  4 4 0.365160 0.317993 -0.123507
 9 10  7  4 4 0.501234 -0.415404 -0.490566

[ exclusions ]
 1  2  3  4  5  6  7  8  9 10 
 2  3  4  5  6  7  9 10 
 3  4  5  6  7  9 10 
 4  5  6  7  8  9 10 
 5  6  7  8  9 10 
 6  7  8  9 10 
 7  8  9 10 
 8  9 10 
 9 10 
