1
10
    1LIG     B1    1   2.099  -0.063  -1.108
    1LIG     B2    2   1.919   0.027  -0.983
    1LIG     B3    3   1.937  -0.223  -1.088
    1LIG     B4    4   2.332  -0.052  -1.077
    1LIG     B5    5   2.450  -0.115  -0.883
    1LIG     B6    6   2.572  -0.032  -1.066
    1LIG     B7    7   2.778  -0.149  -0.855
    1LIG     B8    8   2.796   0.089  -0.770
    1LIG     B9    9   2.776   0.081  -1.158
    1LIG    B10   10   2.574   0.059  -1.326
10 10 10
