CHEMBL1084431
17
    1LIG     B1    1   1.172   0.022  -0.099
    1LIG     B2    2   1.169  -0.180  -0.023
    1LIG     B3    3   1.049  -0.356  -0.043
    1LIG     B4    4   1.270  -0.282   0.074
    1LIG     B5    5   1.193  -0.585   0.168
    1LIG     B6    6   1.434  -0.449   0.137
    1LIG     B7    7   1.472  -0.341   0.357
    1LIG     B8    8   1.535  -0.573   0.345
    1LIG     B9    9   1.286  -0.785   0.184
    1LIG    B10   10   1.250  -0.975   0.294
    1LIG    B11   11   1.336  -0.961   0.058
    1LIG    B12   12   1.451  -0.289   0.569
    1LIG    B13   13   1.163  -0.324   0.551
    1LIG    B14   14   1.444  -0.516   0.750
    1LIG    B15   15   1.981  -0.386   0.787
    1LIG    B16   16   1.684  -0.287   0.781
    1LIG    B17   17   1.732  -0.568   0.737
10 10 10
