[ B1 ]
29 30 32 31
[ B2 ]
28 33 67 27 66
[ B3 ]
27 66 26 65 25
[ B4 ]
25 34 33 67
[ B5 ]
24 64 17 58
[ B6 ]
16 57 35 68
[ B7 ]
36 13 52
[ B8 ]
14 53 54 15 55 56
[ B9 ]
23 63 18 19 59
[ B10 ]
19 59 20 60 21 61
[ B11 ]
21 61 22 62 23 63
[ B12 ]
12 50 51 8
[ B13 ]
10 46 47 11 48 49 71 9 44 45
[ B14 ]
6 7
[ B15 ]
3 42 2 38 70 1 39 40 41
[ B16 ]
3 42 4 43 5
[ B17 ]
5 37 69 38 70
