; This file was generated using the following command:
; /remote/au011/walter/programs/uvenv-ml/bin/ff_inter -f mapped.xtc -s mapped.tpr -i ../mapping.itp -temperature 298 -interactions comments -dists -plots -constraints 10000000 -max-dihedral 3
; 

; Please cite the following papers:
; Kroon, P C; Grunewald, F; Barnoud, J; van Tilburg, M; Souza, P C; Wassenaar, T A; Marrink, S J;  elife 2024; 10.7554/elife.90627.2
; {Brasnett, C; Fidlin, M; Duve, T; Thallmair, S; Marrink, S J; Grünewald, F;   {ChemRxiv  {2026;  {10.26434/chemrxiv.15001072/v1

[ moleculetype ]
ligand 1

[ atoms ]
 1 SN4ah 1 LIG B1   1 0.0 54.0
 2 SC3   1 LIG B2   2 0.0 54.0
 3 TN6d  1 LIG B3   3 0.0 48.0
 4 TN6a  1 LIG B4   4 0.0 72.0
 5 TN6a  1 LIG B5   5 0.0  0.0
 6 TN2   1 LIG B6   6 0.0 72.0
 7 TN6a  1 LIG B7   7 0.0  0.0
 8 TC6   1 LIG B8   8 0.0 60.0
 9 TC5   1 LIG B9   9 0.0  0.0
10 SX4   1 LIG B10 10 0.0 54.0
11 TC5   1 LIG B11 11 0.0 36.0
12 TC5   1 LIG B12 12 0.0 36.0

[ bonds ]
  1   2  1 0.229    25000.000 ; bond1 (204683.235)
  2   3  1 0.251    25000.000 ; bond2 (76722.471)
  3   8  1 0.676    25000.000 ; bond5 (58314.035)
  8  10  1 0.364     5817.024 ; bond3
  8  11  1 0.335    11165.744 ; bond4

[ constraints ]
 3  4 1 0.308 100000
 3  6 1 0.497 100000
 4  6 1 0.517 100000
 4  8 1 0.489 100000
 6  8 1 0.448 100000
10 11 1 0.295 100000
10 12 1 0.248 100000
11 12 1 0.240 100000

[ angles ]
  1   2   3  2  90.167     48.202 ; angle1
  2   3   4  2 100.069     49.722 ; angle2
  2   3   6  9   0.664   2000.000 ; angle6 (183.837 -> linear 0.251 & 0.497)
  6   8  10  2 125.987     27.349 ; angle5
  6   8  11  2 103.863     51.138 ; angle4
  8  10  12  2 109.888      54.51 ; angle3

[ dihedrals ]
; dihedral1
 4  8 10 12 11 1.0 3.059 -3.497 3.554 3.26 -1.352 ; dihedral1

[ virtual_sites3 ]
 5  3  6  4 4 0.483081 0.346373 -0.010105
 7  8  6  4 4 0.528315 -0.172727 -0.002346
 9  4  8  6 4 0.530015 -0.055278 -0.009863

[ exclusions ]
 1  2  3  4  5  6  9 
 2  3  4  5  6  7  8  9 
 3  4  5  6  7  8  9 
 4  5  6  7  8  9 10 11 
 5  6  7  8  9 
 6  7  8  9 10 11 
 7  8  9 10 11 12 
 8  9 10 11 12 
 9 10 11 12 
10 11 12 
11 12 
