2h
12
    1LIG     B1    1   2.863   0.903   3.185
    1LIG     B2    2   2.672   0.822   3.144
    1LIG     B3    3   2.463   0.765   3.110
    1LIG     B4    4   2.163   0.796   3.048
    1LIG     B5    5   2.316   1.010   3.120
    1LIG     B6    6   2.374   1.250   3.178
    1LIG     B7    7   2.130   1.315   3.136
    1LIG     B8    8   1.938   1.230   3.078
    1LIG     B9    9   2.031   1.001   3.059
    1LIG    B10   10   1.679   1.075   3.196
    1LIG    B11   11   1.613   1.188   2.931
    1LIG    B12   12   1.475   1.041   3.061
10 10 10
