CAT-4c
14
    1LIG     B1    1   1.533   0.164  -0.234
    1LIG     B2    2   1.449   0.314  -0.362
    1LIG     B3    3   1.498   0.308  -0.077
    1LIG     B4    4   1.261   0.535  -0.273
    1LIG     B5    5   1.580  -0.038  -0.254
    1LIG     B6    6   1.660  -0.194  -0.392
    1LIG     B7    7   1.555  -0.221  -0.197
    1LIG     B8    8   1.286  -0.318  -0.106
    1LIG     B9    9   1.179  -0.234   0.122
    1LIG    B10   10   1.438  -0.238   0.260
    1LIG    B11   11   1.542  -0.315   0.025
    1LIG    B12   12   1.525  -0.518  -0.107
    1LIG    B13   13   1.684  -0.672  -0.072
    1LIG    B14   14   1.467  -0.715  -0.195
10 10 10
