; This file was generated using the following command:
; /remote/au011/walter/programs/uvenv-ml/bin/ff_inter -f mapped.xtc -s mapped.tpr -i ../mapping.itp -temperature 298 -interactions comments -dists -plots -constraints 10000000 -max-dihedral 3
; 

; Please cite the following papers:
; Kroon, P C; Grunewald, F; Barnoud, J; van Tilburg, M; Souza, P C; Wassenaar, T A; Marrink, S J;  elife 2024; 10.7554/elife.90627.2
; {Brasnett, C; Fidlin, M; Duve, T; Thallmair, S; Marrink, S J; Grünewald, F;   {ChemRxiv  {2026;  {10.26434/chemrxiv.15001072/v1

[ moleculetype ]
ligand 1

[ atoms ]
 1 TC5  1 LIG B1   1 0.0 36.0
 2 TC5  1 LIG B2   2 0.0 36.0
 3 TC5  1 LIG B3   3 0.0 36.0
 4 TN3a 1 LIG B4   4 0.0 36.0
 5 TC5  1 LIG B5   5 0.0 36.0
 6 TC5  1 LIG B6   6 0.0 36.0
 7 TC5  1 LIG B7   7 0.0 36.0
 8 TP1a 1 LIG B8   8 0.0 36.0
 9 TN1  1 LIG B9   9 0.0 36.0
10 TN6d 1 LIG B10 10 0.0 36.0
11 TQ3p 1 LIG B11 11 1.0 36.0
12 TC5  1 LIG B12 12 0.0 36.0
13 TC5  1 LIG B13 13 0.0 36.0
14 TC5  1 LIG B14 14 0.0 36.0

[ bonds ]
  1   5  1 0.222    25000.000 ; bond3 (82777.879)
  2   4  1 0.372     1092.532 ; bond1
  3   4  1 0.354     1115.084 ; bond2
  7   8  1 0.31     21952.155 ; bond6
  7  11  1 0.25     25000.000 ; bond4 (38781.857)
  8  10  1 0.402    25000.000 ; bond8 (107610.567)
  8  12  1 0.313    25000.000 ; bond9 (25761.692)
  9  11  1 0.38     25000.000 ; bond7 (114990.38)
 11  12  1 0.249    25000.000 ; bond5 (38725.934)

[ constraints ]
 1  2 1 0.215 100000
 1  3 1 0.216 100000
 2  3 1 0.289 100000
 5  6 1 0.224 100000
 5  7 1 0.194 100000
 6  7 1 0.223 100000
 8  9 1 0.265 100000
 8 11 1 0.287 100000
 9 10 1 0.294 100000
10 11 1 0.269 100000
12 13 1 0.224 100000
12 14 1 0.223 100000
13 14 1 0.252 100000

[ angles ]
  2   1   5  2 134.747      95.56 ; angle1
  3   1   5  2 134.411     94.462 ; angle2
  1   2   4  2 108.956     26.295 ; angle3
  1   5   6  2 146.418    157.547 ; angle4
  1   5   7  2 149.581    188.025 ; angle5
  5   7  11  2 143.500      24.45 ; angle6
  6   7  11  2 123.545     69.391 ; angle7
  7  11  10  2 135.878     99.452 ; angle8
  7  11  12  2  78.504     50.196 ; angle9
 10  11  12  2 135.361     97.634 ; angle10
 11  12  13  2 140.500     29.581 ; angle11
 11  12  14  2 125.172     72.139 ; angle12

[ dihedrals ]
; dihedral1
 3  1  5  6 11 1.0 142.865 -19.652 -290.238 11.301 218.651 ; dihedral1

; dihedral2
10 11 12 13 11 1.0 49.92 28.246 95.55 -44.625 -104.37 ; dihedral2

; dihedral3
 6  7 11 10 11 1.0 21.404 -18.375 62.236 12.952 -43.245 ; dihedral3

[ exclusions ]
 1  2  3  4  5  6  7  8  9 10 11 12 
 2  3  4  5  6  7  8 11 
 3  4  5  6  7  8 11 
 4  5  6  7 
 5  6  7  8  9 10 11 12 13 14 
 6  7  8  9 10 11 12 13 14 
 7  8  9 10 11 12 13 14 
 8  9 10 11 12 13 14 
 9 10 11 12 13 14 
10 11 12 13 14 
11 12 13 14 
12 13 14 
13 14 
