CHEMBL1089393
10
    1LIG     B1    1   1.187  -0.136  -0.025
    1LIG     B2    2   1.281  -0.285   0.093
    1LIG     B3    3   1.058  -0.354  -0.025
    1LIG     B4    4   1.195  -0.589   0.184
    1LIG     B5    5   1.437  -0.459   0.158
    1LIG     B6    6   1.480  -0.349   0.414
    1LIG     B7    7   1.532  -0.587   0.366
    1LIG     B8    8   1.276  -0.788   0.202
    1LIG     B9    9   1.238  -0.980   0.306
    1LIG    B10   10   1.334  -0.962   0.075
10 10 10
