; This file was generated using the following command:
; /remote/au011/walter/programs/uvenv-ml/bin/ff_inter -f mapped.xtc -s mapped.tpr -i ../mapping.itp -temperature 298 -interactions comments -dists -plots -constraints 10000000 -max-dihedral 3
; 

; Please cite the following papers:
; Kroon, P C; Grunewald, F; Barnoud, J; van Tilburg, M; Souza, P C; Wassenaar, T A; Marrink, S J;  elife 2024; 10.7554/elife.90627.2
; {Brasnett, C; Fidlin, M; Duve, T; Thallmair, S; Marrink, S J; Grünewald, F;   {ChemRxiv  {2026;  {10.26434/chemrxiv.15001072/v1

[ moleculetype ]
ligand 1

[ atoms ]
 1 SN4ah 1 LIG B1   1 0.0 54.0
 2 SN4a  1 LIG B2   2 0.0 54.0
 3 TN4a  1 LIG B3   3 0.0 36.0
 4 SN6d  1 LIG B4   4 0.0 54.0
 5 TN4d  1 LIG B5   5 0.0 36.0
 6 TP1a  1 LIG B6   6 0.0 36.0
 7 TC4   1 LIG B7   7 0.0 36.0
 8 TC5   1 LIG B8   8 0.0 36.0
 9 TC5   1 LIG B9   9 0.0 36.0
10 SN2a  1 LIG B10 10 0.0 54.0

[ bonds ]
  1   3  1 0.318    25000.000 ; bond3 (70932.186)
  2   5  1 0.516    25000.000 ; bond7 (83205.695)
  3   4  1 0.335    25000.000 ; bond5 (136150.843)
  5   6  1 0.217    25000.000 ; bond2 (197974.909)
  6   7  1 0.222    25000.000 ; bond1 (116492.962)
  7  10  1 0.597    25000.000 ; bond6 (40913.388)
  8   9  1 0.337    25000.000 ; bond4 (239438.055)

[ constraints ]
 2  3 1 0.301 100000
 2  4 1 0.311 100000
 3  5 1 0.243 100000
 4  5 1 0.387 100000
 7  8 1 0.320 100000
 7  9 1 0.323 100000
 8 10 1 0.330 100000
 9 10 1 0.407 100000

[ angles ]
  1   3   2  2  88.742     48.225 ; angle1
  1   3   5  2 131.301     85.407 ; angle2
  3   5   6  2 138.535    109.935 ; angle3
  4   5   6  2  85.282      48.53 ; angle4
  5   6   7  2  90.616     48.208 ; angle5
  6   7   8  2 106.710     25.018 ; angle6
  6   7   9  2 107.924     25.356 ; angle7

[ dihedrals ]
; dihedral1
 3  5  6  7 11 1.0 55.638 25.609 -5.236 11.879 -10.479 ; dihedral1

; dihedral2
 5  6  7  8 11 1.0 3.292 -1.136 -3.443 1.603 3.771 ; dihedral2

[ exclusions ]
 1  2  3  4  5  6  7 
 2  3  4  5  6  7 
 3  4  5  6  7 
 4  5  6  7 
 5  6  7  8  9 
 6  7  8  9 10 
 7  8  9 10 
 8  9 10 
 9 10 
