18633-1
10
    1LIG     B1    1   2.295   1.113   2.996
    1LIG     B2    2   1.983   1.158   3.313
    1LIG     B3    3   2.142   0.956   3.157
    1LIG     B4    4   1.864   0.870   3.327
    1LIG     B5    5   2.140   0.720   3.100
    1LIG     B6    6   2.040   0.529   3.143
    1LIG     B7    7   2.185   0.425   3.008
    1LIG     B8    8   2.484   0.533   2.969
    1LIG     B9    9   2.407   0.320   3.217
    1LIG    B10   10   2.773   0.464   3.111
10 10 10
