; This file was generated using the following command:
; /remote/au011/walter/programs/uvenv-ml/bin/ff_inter -f mapped.xtc -s mapped.tpr -i ../mapping.itp -temperature 298 -interactions comments -dists -plots -constraints 10000000 -max-dihedral 3
; 

; Please cite the following papers:
; {Brasnett, C; Fidlin, M; Duve, T; Thallmair, S; Marrink, S J; Grünewald, F;   {ChemRxiv  {2026;  {10.26434/chemrxiv.15001072/v1
; Kroon, P C; Grunewald, F; Barnoud, J; van Tilburg, M; Souza, P C; Wassenaar, T A; Marrink, S J;  elife 2024; 10.7554/elife.90627.2

[ moleculetype ]
ligand 1

[ atoms ]
1 TN6d 1 LIG B1 1 0.0 48.0
2 TN3  1 LIG B2 2 0.0 48.0
3 SX2  1 LIG B3 3 0.0 66.0
4 TC5  1 LIG B4 4 0.0 36.0
5 TC5  1 LIG B5 5 0.0  0.0

[ bonds ]
  1   4  1 0.501    25000.000 ; bond1 (87214.937)

[ constraints ]
1 2 1 0.328 100000
1 3 1 0.479 100000
2 3 1 0.477 100000
2 4 1 0.330 100000
3 4 1 0.259 100000

[ virtual_sites3 ]
5 3 1 2 4 0.301875 0.182946 -0.003319

[ exclusions ]
1 2 3 4 5 
2 3 4 5 
3 4 5 
4 5 
