; This file was generated using the following command:
; /remote/au011/walter/programs/uvenv-ml/bin/ff_inter -f mapped.xtc -s mapped.tpr -i ../mapping.itp -temperature 298 -interactions comments -dists -plots -constraints 10000000 -max-dihedral 3
; 

; Please cite the following papers:
; {Brasnett, C; Fidlin, M; Duve, T; Thallmair, S; Marrink, S J; Grünewald, F;   {ChemRxiv  {2026;  {10.26434/chemrxiv.15001072/v1
; Kroon, P C; Grunewald, F; Barnoud, J; van Tilburg, M; Souza, P C; Wassenaar, T A; Marrink, S J;  elife 2024; 10.7554/elife.90627.2

[ moleculetype ]
ligand 1

[ atoms ]
 1 TC5  1 LIG B1   1 0.0 36.0
 2 TC5  1 LIG B2   2 0.0 36.0
 3 TC5  1 LIG B3   3 0.0 36.0
 4 SQ4p 1 LIG B4   4 1.0 54.0
 5 TP2a 1 LIG B5   5 0.0 48.0
 6 SX2  1 LIG B6   6 0.0 54.0
 7 TC5  1 LIG B7   7 0.0 36.0
 8 TC5  1 LIG B8   8 0.0 36.0
 9 TN3d  1 LIG B9   9 0.0 36.0
10 TP2a 1 LIG B10 10 0.0 48.0
11 TN3  1 LIG B11 11 0.0  0.0
12 SC3  1 LIG B12 12 0.0 66.0

[ bonds ]
  1   4  1 0.26      20623.78 ; bond2
  4   5  1 0.23     16721.405 ; bond1
  7   9  1 0.225    21615.324 ; bond4
  9  10  1 0.231    25000.000 ; bond3 (26055.536)

[ constraints ]
 1  2 1 0.224 100000
 1  3 1 0.222 100000
 2  3 1 0.252 100000
 5 10 1 0.299 100000
 5 12 1 0.371 100000
 6  7 1 0.241 100000
 6  8 1 0.270 100000
 7  8 1 0.222 100000
10 12 1 0.341 100000

[ angles ]
  2   1   4  2 137.813    106.882 ; angle1
  3   1   4  2 135.080     96.674 ; angle2
  1   4   5  2 104.500      5.569 ; angle3
  4   5  10  2 152.962    233.261 ; angle10
  4   5  12  2 103.357      50.92 ; angle9
  6   7   9  2 143.641    137.147 ; angle4
  8   7   9  2 144.603    143.665 ; angle5
  7   9  10  2 115.921      16.21 ; angle6
  5  10   9  2  83.289     48.869 ; angle8
  9  10  12  2  91.367     48.229 ; angle7

[ dihedrals ]
; dihedral1
 2  1  4  5 11 1.0 21.438 9.692 -28.62 -15.087 21.509 ; dihedral1

; dihedral2
 6  7  9 10 11 1.0 26.692 7.556 -2.97 -10.489 -8.742 ; dihedral2

[ virtual_sites3 ]
11  5 12 10 4 0.434088 0.210569 0.985099

[ exclusions ]
 1  2  3  4  5 10 11 12 
 2  3  4  5 
 3  4  5 11 
 4  5  7  9 10 11 12 
 5  6  7  8  9 10 11 12 
 6  7  8  9 10 11 
 7  8  9 10 11 12 
 8  9 10 11 
 9 10 11 12 
10 11 12 
11 12 
