9
8
    1LIG     B1    1   3.235   4.291   3.654
    1LIG     B2    2   3.519   4.212   3.508
    1LIG     B3    3   3.357   3.866   3.687
    1LIG     B4    4   3.539   3.890   3.574
    1LIG     B5    5   3.336   4.037   3.657
    1LIG     B6    6   3.255   3.713   3.788
    1LIG     B7    7   3.187   3.484   3.773
    1LIG     B8    8   3.141   3.655   3.972
10 10 10
