; This file was generated using the following command:
; /remote/au011/walter/programs/uvenv-ml/bin/ff_inter -f mapped.xtc -s mapped.tpr -i ../mapping.itp -temperature 298 -interactions comments -dists -plots -constraints 10000000 -max-dihedral 3
; 

; Please cite the following papers:
; {Brasnett, C; Fidlin, M; Duve, T; Thallmair, S; Marrink, S J; Grünewald, F;   {ChemRxiv  {2026;  {10.26434/chemrxiv.15001072/v1
; Kroon, P C; Grunewald, F; Barnoud, J; van Tilburg, M; Souza, P C; Wassenaar, T A; Marrink, S J;  elife 2024; 10.7554/elife.90627.2

[ moleculetype ]
ligand 1

[ atoms ]
1 TN6d 1 LIG B1 1 0.0 48.0
2 TN3  1 LIG B2 2 0.0 48.0
3 TC5  1 LIG B3 3 0.0 48.0
4 TC5  1 LIG B4 4 0.0 36.0
5 TC5  1 LIG B5 5 0.0  0.0
6 TC5  1 LIG B6 6 0.0 36.0
7 SX3  1 LIG B7 7 0.0 54.0
8 TC5  1 LIG B8 8 0.0 36.0

[ bonds ]
  1   4  1 0.501    25000.000 ; bond3 (94421.097)
  2   3  1 0.404    25000.000 ; bond2 (194510.372)
  3   6  1 0.22     25000.000 ; bond1 (83103.91)

[ constraints ]
1 2 1 0.328 100000
1 3 1 0.443 100000
2 4 1 0.330 100000
3 4 1 0.216 100000
6 7 1 0.239 100000
6 8 1 0.224 100000
7 8 1 0.266 100000

[ angles ]
  1   3   6  2 126.907     75.389 ; angle4
  4   3   6  2 132.948     89.965 ; angle1
  3   6   7  2 145.278    148.571 ; angle2
  3   6   8  2 146.134    155.225 ; angle3

[ dihedrals ]
; dihedral1
4 3 6 8 11 1.0 111.141 -12.776 -277.461 8.537 235.781 ; dihedral1

[ virtual_sites3 ]
5 3 1 2 4 0.315787 0.106761 0.003984

[ exclusions ]
1 2 3 4 5 6 7 8 
2 3 4 5 6 7 8 
3 4 5 6 7 8 
4 5 6 7 8 
5 6 7 8 
6 7 8 
7 8 
