18628-1_flip
10
    1LIG     B1    1   2.299   1.108   2.996
    1LIG     B2    2   1.992   1.152   3.319
    1LIG     B3    3   2.148   0.951   3.160
    1LIG     B4    4   1.873   0.864   3.334
    1LIG     B5    5   2.146   0.714   3.103
    1LIG     B6    6   2.031   0.528   3.123
    1LIG     B7    7   2.180   0.424   2.995
    1LIG     B8    8   2.499   0.488   3.015
    1LIG     B9    9   2.514   0.294   3.231
    1LIG    B10   10   2.187   0.258   3.220
10 10 10
