; This file was generated using the following command:
; /remote/au011/walter/programs/uvenv-ml/bin/ff_inter -f mapped.xtc -s mapped.tpr -i ../mapping.itp -temperature 298 -interactions comments -dists -plots -constraints 10000000 -max-dihedral 3
; 

; Please cite the following papers:
; {Brasnett, C; Fidlin, M; Duve, T; Thallmair, S; Marrink, S J; Grünewald, F;   {ChemRxiv  {2026;  {10.26434/chemrxiv.15001072/v1
; Kroon, P C; Grunewald, F; Barnoud, J; van Tilburg, M; Souza, P C; Wassenaar, T A; Marrink, S J;  elife 2024; 10.7554/elife.90627.2

[ moleculetype ]
ligand 1

[ atoms ]
 1 SN4  1 LIG B1   1 0.0 66.0
 2 TN6a 1 LIG B2   2 0.0 72.0
 3 TN6a 1 LIG B3   3 0.0  0.0
 4 TN2  1 LIG B4   4 0.0 72.0
 5 TN6a 1 LIG B5   5 0.0  0.0
 6 TC5  1 LIG B6   6 0.0  0.0
 7 TN2a 1 LIG B7   7 0.0 60.0
 8 TC5  1 LIG B8   8 0.0 36.0
 9 SX4  1 LIG B9   9 0.0 54.0
10 SX4  1 LIG B10 10 0.0 54.0
11 N6   1 LIG B11 11 0.0 72.0

[ bonds ]
  1   7  1 1.272      692.302 ; bond4
  1  11  1 0.266    25000.000 ; bond1 (70282.952)
  7   8  1 0.304    25000.000 ; bond2 (55841.99)
  7   9  1 0.338    25000.000 ; bond3 (53274.308)

[ constraints ]
 1  2 1 0.395 100000
 1  4 1 0.501 100000
 2  4 1 0.518 100000
 2  7 1 0.469 100000
 4  7 1 0.432 100000
 8  9 1 0.294 100000
 8 10 1 0.246 100000
 9 10 1 0.253 100000

[ angles ]
  2   1  11  2 126.574     74.738 ; angle1
  4   1  11  2  88.042     48.258 ; angle4
  4   7   8  2 113.978     40.635 ; angle3
  4   7   9  2 152.313     47.996 ; angle2
  7   9  10  2 109.675     54.365 ; angle5

[ dihedrals ]
; dihedral1
11  1  4  7 11 1.0 17.737 41.051 9.359 -20.104 2.813 ; dihedral1

; dihedral2
 2  7  9 10 11 1.0 4.138 -6.255 6.217 6.512 -0.473 ; dihedral2

[ virtual_sites3 ]
 3  1  4  2 4 0.474313 0.388468 -0.038420
 5  7  4  2 4 0.513525 -0.193737 0.011909
 6  2  7  4 4 0.559719 -0.067337 -0.002304

[ exclusions ]
 1  2  3  4  5  6  7 11 
 2  3  4  5  6  7  8  9 11 
 3  4  5  6  7  9 11 
 4  5  6  7  8  9 10 11 
 5  6  7  8  9 10 
 6  7  8  9 10 11 
 7  8  9 10 
 8  9 10 
 9 10 
