2y
11
    1LIG     B1    1   2.537   0.778   3.171
    1LIG     B2    2   2.163   0.797   3.048
    1LIG     B3    3   2.316   1.010   3.120
    1LIG     B4    4   2.374   1.251   3.178
    1LIG     B5    5   2.130   1.315   3.136
    1LIG     B6    6   2.031   1.000   3.059
    1LIG     B7    7   1.954   1.215   3.083
    1LIG     B8    8   1.669   1.222   2.938
    1LIG     B9    9   1.708   1.093   3.200
    1LIG    B10   10   1.504   1.081   3.052
    1LIG    B11   11   2.745   0.961   3.131
10 10 10
