18636-1
10
    1LIG     B1    1   2.295   1.111   2.996
    1LIG     B2    2   1.983   1.158   3.315
    1LIG     B3    3   2.141   0.956   3.157
    1LIG     B4    4   1.863   0.871   3.327
    1LIG     B5    5   2.136   0.721   3.096
    1LIG     B6    6   2.044   0.528   3.147
    1LIG     B7    7   2.213   0.377   3.069
    1LIG     B8    8   2.413   0.558   2.983
    1LIG     B9    9   2.591   0.406   3.149
    1LIG    B10   10   2.442   0.202   3.289
10 10 10
