; This file was generated using the following command:
; /remote/au011/walter/programs/uvenv-ml/bin/ff_inter -f mapped.xtc -s mapped.tpr -i ../mapping.itp -temperature 298 -interactions comments -dists -plots -constraints 10000000 -max-dihedral 3
; 

; Please cite the following papers:
; {Brasnett, C; Fidlin, M; Duve, T; Thallmair, S; Marrink, S J; Grünewald, F;   {ChemRxiv  {2026;  {10.26434/chemrxiv.15001072/v1
; Kroon, P C; Grunewald, F; Barnoud, J; van Tilburg, M; Souza, P C; Wassenaar, T A; Marrink, S J;  elife 2024; 10.7554/elife.90627.2

[ moleculetype ]
ligand 1

[ atoms ]
 1 SN4ah 1 LIG B1   1 0.0 54.0
 2 SN4a  1 LIG B2   2 0.0 54.0
 3 TN4a  1 LIG B3   3 0.0 36.0
 4 SN6d  1 LIG B4   4 0.0 54.0
 5 TN4d  1 LIG B5   5 0.0 36.0
 6 TP1a  1 LIG B6   6 0.0 36.0
 7 SC5   1 LIG B7   7 0.0 54.0
 8 TX2   1 LIG B8   8 0.0 36.0
 9 TC5   1 LIG B9   9 0.0 36.0
10 TX2   1 LIG B10 10 0.0 36.0

[ bonds ]
  1   3  1 0.318    25000.000 ; bond3 (88971.671)
  2   5  1 0.515    25000.000 ; bond7 (78996.424)
  3   4  1 0.335    25000.000 ; bond5 (157139.138)
  5   6  1 0.218    25000.000 ; bond2 (152338.157)
  6   7  1 0.246     7452.994 ; bond1
  7   9  1 0.388    25000.000 ; bond4 (108478.09)
  8  10  1 0.468    25000.000 ; bond6 (126720.389)

[ constraints ]
 2  3 1 0.301 100000
 2  4 1 0.311 100000
 3  5 1 0.243 100000
 4  5 1 0.387 100000
 7  8 1 0.283 100000
 7 10 1 0.363 100000
 8  9 1 0.287 100000
 9 10 1 0.288 100000

[ angles ]
  1   3   2  2  90.656     48.208 ; angle1
  1   3   5  2 129.439     80.815 ; angle2
  3   5   6  2 138.968    111.846 ; angle3
  4   5   6  2  85.327     48.524 ; angle4
  5   6   7  2  96.600     28.322 ; angle5
  6   7   8  2  82.544     49.028 ; angle6
  6   7  10  2 121.686     66.568 ; angle7

[ dihedrals ]
; dihedral1
 5  6  7  8 11 1.0 3.346 -3.187 0.537 5.309 -0.215 ; dihedral1

; dihedral2
 3  5  6  7 11 1.0 21.687 3.897 11.802 7.736 -17.016 ; dihedral2

[ exclusions ]
 1  2  3  4  5  6  7 
 2  3  4  5  6  7 
 3  4  5  6  7  8 
 4  5  6  7 
 5  6  7  8  9 10 
 6  7  8  9 10 
 7  8  9 10 
 8  9 10 
 9 10 
