CHEMBL3402760_1 redocked
16
    1LIG     B1    1   1.877   2.836   5.465
    1LIG     B2    2   1.764   2.722   5.358
    1LIG     B3    3   1.601   2.552   5.344
    1LIG     B4    4   1.950   2.946   5.641
    1LIG     B5    5   2.012   3.176   5.803
    1LIG     B6    6   1.966   2.762   5.810
    1LIG     B7    7   2.057   2.977   5.943
    1LIG     B8    8   2.213   3.234   5.752
    1LIG     B9    9   2.417   3.269   5.832
    1LIG    B10   10   2.345   3.284   5.621
    1LIG    B11   11   2.513   3.399   5.379
    1LIG    B12   12   2.345   3.262   5.305
    1LIG    B13   13   2.465   3.350   5.223
    1LIG    B14   14   2.458   3.307   4.945
    1LIG    B15   15   2.398   3.041   4.738
    1LIG    B16   16   1.893   2.864   5.245
10 10 10
