[ B1 ]
32 60 27 28 57
[ B2 ]
30 59 31 32 60
[ B3 ]
33 34
[ B4 ]
22 21
[ B5 ]
20 19 53 54
[ B6 ]
23 55 24 56
[ B7 ]
25 26
[ B8 ]
18 35 61 17 52
[ B9 ]
17 52 16 51 15 50
[ B10 ]
15 50 14 35 61
[ B11 ]
10 9 48 11
[ B12 ]
11 12 13 49
[ B13 ]
8 9 48 13 49
[ B14 ]
7 6 46 47 5 44 45
[ B15 ]
1 36 37 38 2 62 4 42 43 3 39 40 41
[ B16 ]
28 57 29 58 30 59
