167
11
    1LIG     B1    1   2.100  -0.061  -1.107
    1LIG     B2    2   1.946  -0.006  -1.008
    1LIG     B3    3   1.830   0.161  -0.896
    1LIG     B4    4   1.934  -0.227  -1.089
    1LIG     B5    5   2.333  -0.051  -1.076
    1LIG     B6    6   2.450  -0.115  -0.883
    1LIG     B7    7   2.572  -0.034  -1.066
    1LIG     B8    8   2.575   0.055  -1.330
    1LIG     B9    9   2.778   0.083  -1.155
    1LIG    B10   10   2.778  -0.149  -0.853
    1LIG    B11   11   2.797   0.086  -0.768
10 10 10
