; This file was generated using the following command:
; /remote/au011/walter/programs/uvenv-ml/bin/ff_inter -f mapped.xtc -s mapped.tpr -i ../mapping.itp -temperature 298 -interactions comments -dists -plots -constraints 10000000 -max-dihedral 3
; 

; Please cite the following papers:
; Kroon, P C; Grunewald, F; Barnoud, J; van Tilburg, M; Souza, P C; Wassenaar, T A; Marrink, S J;  elife 2024; 10.7554/elife.90627.2
; {Brasnett, C; Fidlin, M; Duve, T; Thallmair, S; Marrink, S J; Grünewald, F;   {ChemRxiv  {2026;  {10.26434/chemrxiv.15001072/v1

[ moleculetype ]
ligand 1

[ atoms ]
 1 TC5  1 LIG B1   1 0.0 36.0
 2 TC5  1 LIG B2   2 0.0 36.0
 3 SQ4p 1 LIG B3   3 1.0 54.0
 4 TP2a 1 LIG B4   4 0.0 48.0
 5 SX3  1 LIG B5   5 0.0 54.0
 6 TC5  1 LIG B6   6 0.0 36.0
 7 TC5  1 LIG B7   7 0.0 36.0
 8 TN3d  1 LIG B8   8 0.0 36.0
 9 TP2a 1 LIG B9   9 0.0 48.0
10 TN3  1 LIG B10 10 0.0  0.0
11 SC3  1 LIG B11 11 0.0 66.0
12 TC5  1 LIG B12 12 0.0 36.0

[ bonds ]
  1   3  1 0.258    18318.933 ; bond2
  3   4  1 0.231    17972.489 ; bond1
  6   8  1 0.225    21672.565 ; bond4
  8   9  1 0.231    21441.375 ; bond3

[ constraints ]
 1  2 1 0.222 100000
 1 12 1 0.224 100000
 2 12 1 0.252 100000
 4  9 1 0.298 100000
 4 11 1 0.371 100000
 5  6 1 0.237 100000
 5  7 1 0.266 100000
 6  7 1 0.222 100000
 9 11 1 0.341 100000

[ angles ]
  2   1   3  2 137.273    104.703 ; angle1
  3   1  12  2 139.499    114.277 ; angle2
  1   3   4  2 100.500      5.445 ; angle3
  3   4   9  2 153.471    241.618 ; angle11
  3   4  11  2 104.292      51.33 ; angle9
  3   4  11  2 104.292      51.33 ; angle10
  5   6   8  2 143.145    133.987 ; angle4
  7   6   8  2 145.230    148.212 ; angle5
  6   8   9  2 117.189     14.085 ; angle6
  4   9   8  2  82.354     49.071 ; angle8
  8   9  11  2  91.497     48.235 ; angle7

[ dihedrals ]
; dihedral1
 5  6  8  9 11 1.0 24.289 3.981 0.624 -7.874 -6.455 ; dihedral1

; dihedral2
12  1  3  4 11 1.0 19.501 15.93 -25.373 -22.159 21.781 ; dihedral2

[ virtual_sites3 ]
10  4 11  9 4 0.434261 0.210813 0.983897

[ exclusions ]
 1  2  3  4  9 10 11 12 
 2  3  4 10 12 
 3  4  6  8  9 10 11 12 
 4  5  6  7  8  9 10 11 12 
 5  6  7  8  9 10 
 6  7  8  9 10 11 
 7  8  9 10 
 8  9 10 11 
 9 10 11 
10 11 
