18627-1
10
    1LIG     B1    1   2.295   1.114   2.996
    1LIG     B2    2   1.983   1.158   3.314
    1LIG     B3    3   2.141   0.957   3.156
    1LIG     B4    4   1.864   0.871   3.327
    1LIG     B5    5   2.137   0.721   3.097
    1LIG     B6    6   2.044   0.529   3.146
    1LIG     B7    7   2.184   0.426   3.008
    1LIG     B8    8   2.487   0.530   2.977
    1LIG     B9    9   2.660   0.402   3.157
    1LIG    B10   10   2.401   0.312   3.218
10 10 10
