; This file was generated using the following command:
; /remote/au011/walter/programs/uvenv-ml/bin/ff_inter -f mapped.xtc -s mapped.tpr -i ../mapping.itp -temperature 298 -interactions comments -dists -plots -constraints 10000000 -max-dihedral 3
; 

; Please cite the following papers:
; Kroon, P C; Grunewald, F; Barnoud, J; van Tilburg, M; Souza, P C; Wassenaar, T A; Marrink, S J;  elife 2024; 10.7554/elife.90627.2
; {Brasnett, C; Fidlin, M; Duve, T; Thallmair, S; Marrink, S J; Grünewald, F;   {ChemRxiv  {2026;  {10.26434/chemrxiv.15001072/v1

[ moleculetype ]
ligand 1

[ atoms ]
 1 TN5d 1 LIG B1   1 0.0 78.0
 2 TN4a 1 LIG B2   2 0.0  0.0
 3 SN4a 1 LIG B3   3 0.0  0.0
 4 TC4  1 LIG B4   4 0.0  0.0
 5 TP1  1 LIG B5   5 0.0 78.0
 6 SC3  1 LIG B6   6 0.0 96.0
 7 TC5  1 LIG B7   7 0.0 36.0
 8 TC5  1 LIG B8   8 0.0 36.0
 9 TC5  1 LIG B9   9 0.0 36.0
10 TC5  1 LIG B10 10 0.0 36.0
11 TN6a 1 LIG B11 11 0.0 36.0
12 TC5  1 LIG B12 12 0.0 36.0

[ bonds ]
  6   7  1 0.311    25000.000 ; bond2 (50624.437)
  6   9  1 0.366    25000.000 ; bond3 (26704.377)
  9  10  1 0.228    25000.000 ; bond1 (91934.091)

[ constraints ]
 1  5 1 0.732 100000
 1  6 1 0.562 100000
 5  6 1 0.403 100000
 7  8 1 0.241 100000
 7  9 1 0.262 100000
 8  9 1 0.202 100000
10 11 1 0.194 100000
10 12 1 0.219 100000
11 12 1 0.223 100000

[ angles ]
  1   6   9  2 133.000     90.118 ; angle6
  5   6   9  2 115.805     59.472 ; angle7
  6   7   8  2 122.698     68.065 ; angle1
  7   9  10  2 134.395      94.41 ; angle2
  8   9  10  2 173.269   3508.732 ; angle3
  9  10  11  2 145.332    148.976 ; angle4
  9  10  12  2 145.069    147.021 ; angle5

[ dihedrals ]
; dihedral1
 1  6  9  8 11 1.0 10.489 18.551 -15.336 -30.716 29.916 ; dihedral1

; dihedral2
 7  9 10 12 11 1.0 30.466 9.763 21.982 230.508 289.426 ; dihedral2

[ virtual_sites3 ]
 2  6  1  5 4 0.497456 -0.012802 -0.038537
 3  1  6  5 4 -0.544692 0.875521 -0.219051
 4  6  5  1 4 0.472092 0.265604 -0.041732

[ exclusions ]
 1  2  3  4  5  6  7  9 
 2  3  4  5  6  7  8  9 10 
 3  4  5  6  7  9 
 4  5  6  7  8  9 10 11 
 5  6  7  8  9 10 
 6  7  8  9 10 11 12 
 7  8  9 10 11 12 
 8  9 10 11 12 
 9 10 11 12 
10 11 12 
11 12 
