17
12
    1LIG     B1    1  -0.237   1.176   2.410
    1LIG     B2    2   0.032   1.101   2.444
    1LIG     B3    3  -0.104   0.978   2.758
    1LIG     B4    4   0.131   0.977   2.636
    1LIG     B5    5   0.243   0.816   2.830
    1LIG     B6    6   0.300   1.036   2.496
    1LIG     B7    7   0.522   0.949   2.333
    1LIG     B8    8   0.723   1.074   2.288
    1LIG     B9    9   0.605   1.187   2.407
    1LIG    B10   10   0.530   1.348   2.528
    1LIG    B11   11   0.595   1.473   2.660
    1LIG    B12   12   0.398   1.519   2.567
10 10 10
