; This file was generated using the following command:
; /remote/au011/walter/programs/uvenv-ml/bin/ff_inter -f mapped.xtc -s mapped.tpr -i ../mapping.itp -temperature 298 -interactions comments -dists -plots -constraints 10000000 -max-dihedral 3
; 

; Please cite the following papers:
; {Brasnett, C; Fidlin, M; Duve, T; Thallmair, S; Marrink, S J; Grünewald, F;   {ChemRxiv  {2026;  {10.26434/chemrxiv.15001072/v1
; Kroon, P C; Grunewald, F; Barnoud, J; van Tilburg, M; Souza, P C; Wassenaar, T A; Marrink, S J;  elife 2024; 10.7554/elife.90627.2

[ moleculetype ]
ligand 1

[ atoms ]
 1 TC5  1 LIG B1   1 0.0 36.0
 2 TC5  1 LIG B2   2 0.0 36.0
 3 SX3  1 LIG B3   3 0.0 54.0
 4 TC5  1 LIG B4   4 0.0 36.0
 5 TC5  1 LIG B5   5 0.0 36.0
 6 TC5  1 LIG B6   6 0.0 36.0
 7 SC2  1 LIG B7   7 0.0 54.0
 8 TP1a 1 LIG B8   8 0.0 36.0
 9 TN1  1 LIG B9   9 0.0 36.0
10 TN6d 1 LIG B10 10 0.0 36.0
11 TQ3p 1 LIG B11 11 1.0 36.0

[ bonds ]
  1   4  1 0.221    25000.000 ; bond3 (91566.684)
  6   8  1 0.306    25000.000 ; bond5 (33282.24)
  6  11  1 0.252    25000.000 ; bond2 (81966.259)
  7   8  1 0.351    25000.000 ; bond4 (34833.378)
  7  11  1 0.255    25000.000 ; bond1 (47862.782)
  8  10  1 0.402    25000.000 ; bond7 (86375.344)
  9  11  1 0.38     25000.000 ; bond6 (99753.823)

[ constraints ]
 1  2 1 0.224 100000
 1  3 1 0.239 100000
 2  3 1 0.266 100000
 4  5 1 0.224 100000
 4  6 1 0.194 100000
 5  6 1 0.223 100000
 8  9 1 0.267 100000
 8 11 1 0.287 100000
 9 10 1 0.294 100000
10 11 1 0.269 100000

[ angles ]
  2   1   4  2 146.345    156.945 ; angle1
  3   1   4  2 145.023    146.683 ; angle2
  1   4   5  2 146.419    157.556 ; angle4
  1   4   6  2 149.619    188.451 ; angle3
  4   6  11  2 123.931     70.018 ; angle6
  5   6  11  2 173.384   3631.204 ; angle5
  6  11   7  2  89.938     48.202 ; angle7
  6  11  10  2 134.040     93.279 ; angle9
  7  11  10  2 129.518     80.999 ; angle8

[ dihedrals ]
; dihedral1
 5  6 11  7 11 1.0 404.997 -59.617 338.5 -244.202 -223.135 ; dihedral1

; dihedral2
 2  1  4  6 11 1.0 341.162 52.948 -688.545 -58.351 533.608 ; dihedral2

[ exclusions ]
 1  2  3  4  5  6  7  8  9 10 11 
 2  3  4  5  6  8 11 
 3  4  5  6  8 11 
 4  5  6  7  8  9 10 11 
 5  6  7  8  9 10 11 
 6  7  8  9 10 11 
 7  8  9 10 11 
 8  9 10 11 
 9 10 11 
10 11 
