CAT-13c
11
    1LIG     B1    1   1.541   0.213  -0.204
    1LIG     B2    2   1.478   0.409  -0.293
    1LIG     B3    3   1.515   0.377  -0.031
    1LIG     B4    4   1.583   0.011  -0.243
    1LIG     B5    5   1.695  -0.131  -0.377
    1LIG     B6    6   1.578  -0.175  -0.192
    1LIG     B7    7   1.587  -0.522  -0.079
    1LIG     B8    8   1.306  -0.295  -0.126
    1LIG     B9    9   1.184  -0.227   0.102
    1LIG    B10   10   1.437  -0.229   0.252
    1LIG    B11   11   1.554  -0.288   0.018
10 10 10
