; This file was generated using the following command:
; /remote/au011/walter/programs/uvenv-ml/bin/ff_inter -f mapped.xtc -s mapped.tpr -i ../mapping.itp -temperature 298 -interactions comments -dists -plots -constraints 10000000 -max-dihedral 3
; 

; Please cite the following papers:
; Kroon, P C; Grunewald, F; Barnoud, J; van Tilburg, M; Souza, P C; Wassenaar, T A; Marrink, S J;  elife 2024; 10.7554/elife.90627.2
; {Brasnett, C; Fidlin, M; Duve, T; Thallmair, S; Marrink, S J; Grünewald, F;   {ChemRxiv  {2026;  {10.26434/chemrxiv.15001072/v1

[ moleculetype ]
ligand 1

[ atoms ]
 1 TC5  1 LIG B1   1 0.0 36.0
 2 TC5  1 LIG B2   2 0.0 36.0
 3 TC5  1 LIG B3   3 0.0 36.0
 4 SQ4p 1 LIG B4   4 1.0 54.0
 5 TP2a 1 LIG B5   5 0.0 48.0
 6 TN3  1 LIG B6   6 0.0  0.0
 7 SC3  1 LIG B7   7 0.0 66.0
 8 TP2a 1 LIG B8   8 0.0 48.0
 9 TN3d  1 LIG B9   9 0.0 36.0
10 TX3  1 LIG B10 10 0.0 36.0
11 TC5  1 LIG B11 11 0.0 36.0
12 TX3  1 LIG B12 12 0.0 36.0
13 TC5  1 LIG B13 13 0.0 36.0

[ bonds ]
  1   4  1 0.263    14524.374 ; bond2
  4   5  1 0.236    25000.000 ; bond1 (26168.743)
  8   9  1 0.232    20729.437 ; bond3
  9  10  1 0.316     7002.245 ; bond7
  9  11  1 0.237    22943.227 ; bond4
 10  12  1 0.454    25000.000 ; bond6 (92486.875)
 11  13  1 0.324    25000.000 ; bond5 (235159.301)

[ constraints ]
 1  2 1 0.222 100000
 1  3 1 0.224 100000
 2  3 1 0.252 100000
 5  7 1 0.371 100000
 5  8 1 0.301 100000
 7  8 1 0.340 100000
10 11 1 0.310 100000
10 13 1 0.280 100000
11 12 1 0.238 100000
12 13 1 0.281 100000

[ angles ]
  2   1   4  2 136.536    101.863 ; angle1
  3   1   4  2 138.090    108.034 ; angle2
  1   4   5  2  85.436     48.509 ; angle3
  4   5   7  2 102.981     50.763 ; angle8
  4   5   8  2 153.099    235.464 ; angle9
  5   8   9  2  82.398     49.061 ; angle6
  7   8   9  2  91.737     48.246 ; angle7
  8   9  11  2  93.694     24.858 ; angle4
  9  10  13  2 110.366     54.845 ; angle5

[ dihedrals ]
; dihedral1
 3  1  4  5 11 1.0 19.774 14.209 -22.598 -22.488 20.267 ; dihedral1

; dihedral2
 8  9 11 10 11 1.0 4.759 1.082 7.096 1.055 -7.625 ; dihedral2

[ virtual_sites3 ]
 6  5  7  8 4 0.432333 0.209613 0.984114

[ exclusions ]
 1  2  3  4  5  6  7  8 
 2  3  4  5  6 
 3  4  5 
 4  5  6  7  8  9 
 5  6  7  8  9 10 11 
 6  7  8  9 10 11 12 
 7  8  9 10 11 
 8  9 10 11 12 13 
 9 10 11 12 13 
10 11 12 13 
11 12 13 
12 13 
