CHEMBL1084677
14
    1LIG     B1    1   1.192   0.018  -0.088
    1LIG     B2    2   1.185  -0.183  -0.008
    1LIG     B3    3   1.281  -0.285   0.093
    1LIG     B4    4   1.058  -0.354  -0.025
    1LIG     B5    5   1.193  -0.587   0.187
    1LIG     B6    6   1.437  -0.459   0.158
    1LIG     B7    7   1.484  -0.353   0.377
    1LIG     B8    8   1.532  -0.587   0.367
    1LIG     B9    9   1.277  -0.788   0.202
    1LIG    B10   10   1.238  -0.980   0.307
    1LIG    B11   11   1.334  -0.962   0.075
    1LIG    B12   12   1.453  -0.334   0.599
    1LIG    B13   13   1.614  -0.400   0.784
    1LIG    B14   14   1.554  -0.665   1.065
10 10 10
