[ B1 ]
26 28 27 29
[ B2 ]
25 24 59 30 60
[ B3 ]
30 60 31 22
[ B4 ]
22 23 58 24 59
[ B5 ]
21 57 14 51
[ B6 ]
13 50 32 61
[ B7 ]
33 10 45
[ B8 ]
11 46 47 12 48 49
[ B9 ]
20 56 15 16 52
[ B10 ]
16 52 17 53 18 54
[ B11 ]
18 54 19 55 20 56
[ B12 ]
9 43 44 8 42
[ B13 ]
5 7 6
[ B14 ]
4 40 41 3 38 39 2 37 62 1 34 35 36
