6e
13
    1LIG     B1    1   1.988  -1.426   2.478
    1LIG     B2    2   2.111  -1.269   2.573
    1LIG     B3    3   2.203  -1.448   2.421
    1LIG     B4    4   1.716  -1.549   2.369
    1LIG     B5    5   1.697  -1.329   2.280
    1LIG     B6    6   1.820  -1.202   2.147
    1LIG     B7    7   1.963  -1.292   2.024
    1LIG     B8    8   1.634  -1.207   2.014
    1LIG     B9    9   1.512  -1.008   2.047
    1LIG    B10   10   1.354  -0.940   2.212
    1LIG    B11   11   1.275  -1.202   2.111
    1LIG    B12   12   1.116  -1.132   2.312
    1LIG    B13   13   1.212  -0.880   2.394
10 10 10
