; This file was generated using the following command:
; /remote/au011/walter/programs/uvenv-ml/bin/ff_inter -f mapped.xtc -s mapped.tpr -i ../mapping.itp -temperature 298 -interactions comments -dists -plots -constraints 10000000 -max-dihedral 3
; 

; Please cite the following papers:
; {Brasnett, C; Fidlin, M; Duve, T; Thallmair, S; Marrink, S J; Grünewald, F;   {ChemRxiv  {2026;  {10.26434/chemrxiv.15001072/v1
; Kroon, P C; Grunewald, F; Barnoud, J; van Tilburg, M; Souza, P C; Wassenaar, T A; Marrink, S J;  elife 2024; 10.7554/elife.90627.2

[ moleculetype ]
ligand 1

[ atoms ]
 1 TC5  1 LIG B1   1 0.0 36.0
 2 TC5  1 LIG B2   2 0.0 36.0
 3 TC5  1 LIG B3   3 0.0 36.0
 4 SQ4p 1 LIG B4   4 1.0 54.0
 5 TP2a 1 LIG B5   5 0.0 54.0
 6 TN3  1 LIG B6   6 0.0  0.0
 7 SC3  1 LIG B7   7 0.0 72.0
 8 TP2a 1 LIG B8   8 0.0 36.0
 9 TN3d  1 LIG B9   9 0.0 36.0
10 TC5  1 LIG B10 10 0.0 36.0
11 TX4  1 LIG B11 11 0.0 36.0
12 TC5  1 LIG B12 12 0.0 36.0
13 TX3  1 LIG B13 13 0.0 36.0

[ bonds ]
  1   4  1 0.26     16991.269 ; bond2
  4   5  1 0.232    15499.477 ; bond1
  8   9  1 0.232    25000.000 ; bond3 (25650.036)
  9  10  1 0.238    20025.156 ; bond4
  9  11  1 0.308    11478.823 ; bond5
 10  12  1 0.324    25000.000 ; bond6 (254391.886)
 11  13  1 0.435    25000.000 ; bond7 (101127.64)

[ constraints ]
 1  2 1 0.222 100000
 1  3 1 0.224 100000
 2  3 1 0.252 100000
 5  7 1 0.371 100000
 5  8 1 0.300 100000
 7  8 1 0.341 100000
10 11 1 0.292 100000
10 13 1 0.238 100000
11 12 1 0.266 100000
12 13 1 0.282 100000

[ angles ]
  2   1   4  2 137.941    107.412 ; angle1
  3   1   4  2 135.875     99.441 ; angle2
  1   4   5  2 103.500      5.892 ; angle3
  4   5   7  2 103.479     50.971 ; angle9
  4   5   8  2 153.111    235.658 ; angle8
  5   8   9  2  81.961     49.164 ; angle7
  7   8   9  2  91.477     48.234 ; angle6
  8   9  10  2  95.687     21.065 ; angle4
  9  11  12  2 116.504     60.188 ; angle5

[ virtual_sitesn ]
 6 1  5  7

[ dihedrals ]
; dihedral1
 3  1  4  5 11 1.0 16.753 19.237 -15.586 -25.189 13.549 ; dihedral1

; dihedral2
 8  9 10 11 11 1.0 5.603 -0.192 6.116 3.084 -6.271 ; dihedral2

[ exclusions ]
 1  2  3  4  5  6  7  8 
 2  3  4  5  6 
 3  4  5 
 4  5  6  7  8  9 
 5  6  7  8  9 10 11 
 6  7  8  9 10 
 7  8  9 10 11 
 8  9 10 11 12 13 
 9 10 11 12 13 
10 11 12 13 
11 12 13 
12 13 
