; This file was generated using the following command:
; /remote/au011/walter/programs/uvenv-ml/bin/ff_inter -f mapped.xtc -s mapped.tpr -i ../mapping.itp -temperature 298 -interactions comments -dists -plots -constraints 10000000 -max-dihedral 3
; 

; Please cite the following papers:
; {Brasnett, C; Fidlin, M; Duve, T; Thallmair, S; Marrink, S J; Grünewald, F;   {ChemRxiv  {2026;  {10.26434/chemrxiv.15001072/v1
; Kroon, P C; Grunewald, F; Barnoud, J; van Tilburg, M; Souza, P C; Wassenaar, T A; Marrink, S J;  elife 2024; 10.7554/elife.90627.2

[ moleculetype ]
ligand 1

[ atoms ]
 1 TN6d 1 LIG B1   1 0.0 48.0
 2 C2   1 LIG B2   2 0.0 72.0
 3 P4   1 LIG B3   3 0.0 72.0
 4 TN6a 1 LIG B4   4 0.0 72.0
 5 TN6a 1 LIG B5   5 0.0  0.0
 6 TN2  1 LIG B6   6 0.0 72.0
 7 TN6a 1 LIG B7   7 0.0  0.0
 8 TC5  1 LIG B8   8 0.0  0.0
 9 TN2a 1 LIG B9   9 0.0 60.0
10 SX4  1 LIG B10 10 0.0 54.0
11 TC5  1 LIG B11 11 0.0 36.0
12 SX4  1 LIG B12 12 0.0 54.0

[ bonds ]
  1   2  1 0.239    25000.000 ; bond1 (69859.791)
  1   9  1 0.67     25000.000 ; bond5 (83222.347)
  2   3  1 0.348    25000.000 ; bond4 (33883.812)
  9  10  1 0.338    25000.000 ; bond2 (45687.937)
  9  11  1 0.303    25000.000 ; bond3 (60406.743)

[ constraints ]
 1  4 1 0.304 100000
 1  6 1 0.499 100000
 4  6 1 0.517 100000
 4  9 1 0.469 100000
 6  9 1 0.432 100000
10 11 1 0.294 100000
10 12 1 0.253 100000
11 12 1 0.246 100000

[ angles ]
  2   1   4  2 165.427    761.374 ; angle1
  2   1   6  2  91.030     48.218 ; angle4
  1   2   3  2 122.171     67.274 ; angle2
  6   9  10  2 150.071     50.633 ; angle5
  6   9  11  2 113.534     47.559 ; angle6
  9  10  12  2 109.937     54.544 ; angle3

[ dihedrals ]
; dihedral1
 2  1  6  9 11 1.0 28.653 11.056 0.625 8.127 -9.442 ; dihedral1

; dihedral2
 4  9 10 12 11 1.0 3.684 -4.854 4.397 5.287 2.042 ; dihedral2

[ virtual_sites3 ]
 5  1  6  4 4 0.484024 0.343889 -0.008437
 7  9  6  4 4 0.513505 -0.195055 0.010418
 8  4  9  6 4 0.559575 -0.067334 -0.002119

[ exclusions ]
 1  2  3  4  5  6  7  8  9 10 11 
 2  3  4  5  6  7  8  9 
 3  4  5 
 4  5  6  7  8  9 10 11 
 5  6  7  8  9 10 
 6  7  8  9 10 11 12 
 7  8  9 10 11 12 
 8  9 10 11 12 
 9 10 11 12 
10 11 12 
11 12 
