CHEMBL3402741_400
17
    1LIG     B1    1   1.889   2.855   5.442
    1LIG     B2    2   1.944   2.955   5.262
    1LIG     B3    3   1.795   2.754   5.336
    1LIG     B4    4   1.652   2.547   5.312
    1LIG     B5    5   1.889   2.882   4.967
    1LIG     B6    6   1.937   2.925   5.642
    1LIG     B7    7   1.930   2.710   5.728
    1LIG     B8    8   2.046   2.929   5.950
    1LIG     B9    9   1.978   3.135   5.836
    1LIG    B10   10   2.172   3.206   5.776
    1LIG    B11   11   2.381   3.245   5.836
    1LIG    B12   12   2.287   3.274   5.639
    1LIG    B13   13   2.358   3.346   5.439
    1LIG    B14   14   2.512   3.361   5.148
    1LIG    B15   15   2.348   3.315   4.959
    1LIG    B16   16   2.377   3.075   4.796
    1LIG    B17   17   2.162   3.335   4.809
10 10 10
