[ B1 ]
27 61 26 35 69
[ B2 ]
27 61 28 62 29
[ B3 ]
29 32 35 69
[ B4 ]
33 34 66 67 68
[ B5 ]
30 31 63 64 65
[ B6 ]
21 20
[ B7 ]
22 59 60 23
[ B8 ]
24 25
[ B9 ]
19 18 57 58
[ B10 ]
17 36 70 16 56
[ B11 ]
16 56 15 55 14 54
[ B12 ]
14 54 13 36 70
[ B13 ]
12 53 10 11
[ B14 ]
9 8 51 52 7 49 50
[ B15 ]
3 71 6 47 48
[ B16 ]
4 42 43 5 44 45 46
[ B17 ]
39 1 37 38 2 40 41
