; This file was generated using the following command:
; /remote/au011/walter/programs/uvenv-ml/bin/ff_inter -f mapped.xtc -s mapped.tpr -i ../mapping.itp -temperature 298 -interactions comments -dists -plots -constraints 10000000 -max-dihedral 3
; 

; Please cite the following papers:
; Kroon, P C; Grunewald, F; Barnoud, J; van Tilburg, M; Souza, P C; Wassenaar, T A; Marrink, S J;  elife 2024; 10.7554/elife.90627.2
; {Brasnett, C; Fidlin, M; Duve, T; Thallmair, S; Marrink, S J; Grünewald, F;   {ChemRxiv  {2026;  {10.26434/chemrxiv.15001072/v1

[ moleculetype ]
ligand 1

[ atoms ]
 1 SP2  1 LIG B1   1 0.0 66.0
 2 TN6d  1 LIG B2   2  0.0  0.0
 3 TC4   1 LIG B3   3  0.0 60.0
 4 TC5   1 LIG B4   4  0.0  0.0
 5 SX3   1 LIG B5   5  0.0 66.0
 6 TC5   1 LIG B6   6  0.0 60.0
 7 SN4ah 1 LIG B7   7  0.0 54.0
 8 TC5   1 LIG B8   8  0.0 48.0
 9 TC5   1 LIG B9   9  0.0 48.0
10 TC5   1 LIG B10 10  0.0  0.0
11 TC5   1 LIG B11 11  0.0 36.0
12 TC5   1 LIG B12 12  0.0 48.0

[ bonds ]
  1   5  1 0.634    25000.000 ; bond3 (73044.557)
  3   7  1 0.256    25000.000 ; bond1 (82179.337)
  7   8  1 0.303    25000.000 ; bond2 (37849.077)
  9  11  1 0.509    25000.000 ; bond4 (134174.686)

[ constraints ]
 1  3 1 0.360 100000
 1  6 1 0.608 100000
 3  5 1 0.407 100000
 3  6 1 0.554 100000
 5  6 1 0.309 100000
 8  9 1 0.258 100000
 8 11 1 0.455 100000
 8 12 1 0.513 100000
 9 12 1 0.411 100000
11 12 1 0.289 100000

[ angles ]
  1   3   7  2 108.114      53.36 ; angle4
  5   3   7  2 103.773     51.098 ; angle3
  3   7   8  2 132.824     89.604 ; angle1
  7   8   9  2 161.038    456.516 ; angle2
  7   8  11  2  78.116     50.337 ; angle5

[ dihedrals ]
; dihedral1
 3  7  8 11 11 1.0 8.555 -2.578 -4.351 3.975 2.514 ; dihedral1

; dihedral2
 1  3  7  8 11 1.0 11.538 16.283 -2.556 -16.098 6.591 ; dihedral2

[ virtual_sites3 ]
 2  1  3  6 4 -0.057415 0.395574 -0.035492
 4  6  5  3 4 -0.157280 0.513094 -0.084788
10  9 12  8 4 0.546947 0.591163 0.052394

[ exclusions ]
 1  2  3  4  5  6  7  8 
 2  3  4  5  6  7  8 
 3  4  5  6  7  8  9 10 11 
 4  5  6  7  8 
 5  6  7  8 
 6  7 
 7  8  9 10 11 12 
 8  9 10 11 12 
 9 10 11 12 
10 11 12 
11 12 
