51
12
    1LIG     B1    1   0.318  -4.951   0.667
    1LIG     B2    2   0.118  -5.071   0.666
    1LIG     B3    3   0.052  -4.762   0.516
    1LIG     B4    4  -0.073  -5.023   0.613
    1LIG     B5    5  -0.311  -4.946   0.538
    1LIG     B6    6  -0.229  -5.218   0.658
    1LIG     B7    7  -0.027  -4.613   0.706
    1LIG     B8    8  -0.299  -4.592   0.794
    1LIG     B9    9  -0.540  -4.581   0.885
    1LIG    B10   10  -0.488  -4.471   0.662
    1LIG    B11   11  -0.453  -4.358   0.436
    1LIG    B12   12  -0.704  -4.360   0.580
10 10 10
