
;;;;;; BENZENE

[moleculetype]
; molname       nrexcl
  ligand    1

[atoms]
; id    type    resnr   residu  atom    cgnr    charge
  1   TC5   1     LIG   R1    1     0 
  2   TC5   1     LIG   R2    2     0 
  3   TC5   1     LIG   R3    3     0 

[constraints]
; i j   funct   length
  1 2       1     0.290 ; cog
  2 3       1     0.290 ; cog
  1 3       1     0.290 ; cog

