; This file was generated using the following command:
; /remote/au011/walter/programs/uvenv-ml/bin/ff_inter -f mapped.xtc -s mapped.tpr -i ../mapping.itp -temperature 298 -interactions comments -dists -plots -constraints 10000000 -max-dihedral 3
; 

; Please cite the following papers:
; {Brasnett, C; Fidlin, M; Duve, T; Thallmair, S; Marrink, S J; Grünewald, F;   {ChemRxiv  {2026;  {10.26434/chemrxiv.15001072/v1
; Kroon, P C; Grunewald, F; Barnoud, J; van Tilburg, M; Souza, P C; Wassenaar, T A; Marrink, S J;  elife 2024; 10.7554/elife.90627.2

[ moleculetype ]
ligand 1

[ atoms ]
 1 TC5  1 LIG B1   1 0.0 36.0
 2 TC5  1 LIG B2   2 0.0 36.0
 3 TC5  1 LIG B3   3 0.0 36.0
 4 SQ4p 1 LIG B4   4 1.0 54.0
 5 TP2a 1 LIG B5   5 0.0 48.0
 6 TN3  1 LIG B6   6 0.0  0.0
 7 SC3  1 LIG B7   7 0.0 66.0
 8 TP2a 1 LIG B8   8 0.0 48.0
 9 TN3d  1 LIG B9   9 0.0 36.0
10 TC5  1 LIG B10 10 0.0 36.0
11 TC5  1 LIG B11 11 0.0 36.0
12 TC5  1 LIG B12 12 0.0 36.0
13 TC3  1 LIG B13 13 0.0 36.0

[ bonds ]
  1   4  1 0.293     1413.802 ; bond2
  4   5  1 0.233    21732.263 ; bond1
  8   9  1 0.229    25000.000 ; bond3 (25688.824)
  9  10  1 0.222    25000.000 ; bond4 (25470.582)
 11  13  1 0.253    25000.000 ; bond5 (64016.905)

[ constraints ]
 1  2 1 0.222 100000
 1  3 1 0.224 100000
 2  3 1 0.252 100000
 5  7 1 0.371 100000
 5  8 1 0.299 100000
 7  8 1 0.341 100000
10 11 1 0.193 100000
10 12 1 0.223 100000
11 12 1 0.223 100000

[ angles ]
  2   1   4  2 140.948    121.436 ; angle1
  3   1   4  2 137.979     107.57 ; angle2
  1   4   5  2  83.466     48.834 ; angle3
  4   5   7  2 104.747     51.542 ; angle12
  4   5   8  2 153.466    241.534 ; angle11
  5   8   9  2  83.224     48.883 ; angle10
  7   8   9  2  92.107     48.267 ; angle9
  8   9  10  2 125.721     13.783 ; angle4
  9  10  11  2 147.774    169.507 ; angle5
  9  10  12  2 144.846    145.398 ; angle6
 10  11  13  2 144.669    144.132 ; angle7
 12  11  13  2 142.903    132.492 ; angle8

[ dihedrals ]
; dihedral1
 3  1  4  5 11 1.0 19.65 25.99 -19.204 -30.307 18.066 ; dihedral1

; dihedral2
 8  9 10 11 11 1.0 43.978 20.531 -2.113 -27.767 -10.005 ; dihedral2

[ virtual_sites3 ]
 6  5  7  8 4 0.433981 0.211292 0.982258

[ exclusions ]
 1  2  3  4  5  6  7  8 
 2  3  4  5  6 
 3  4  5 
 4  5  6  7  8  9 
 5  6  7  8  9 10 11 12 
 6  7  8  9 10 11 12 
 7  8  9 10 
 8  9 10 11 12 13 
 9 10 11 12 13 
10 11 12 13 
11 12 13 
12 13 
