; This file was generated using the following command:
; /remote/au011/walter/programs/uvenv-ml/bin/ff_inter -f mapped.xtc -s mapped.tpr -i ../mapping.itp -temperature 298 -interactions comments -dists -plots -constraints 10000000 -max-dihedral 3
; 

; Please cite the following papers:
; Kroon, P C; Grunewald, F; Barnoud, J; van Tilburg, M; Souza, P C; Wassenaar, T A; Marrink, S J;  elife 2024; 10.7554/elife.90627.2
; {Brasnett, C; Fidlin, M; Duve, T; Thallmair, S; Marrink, S J; Grünewald, F;   {ChemRxiv  {2026;  {10.26434/chemrxiv.15001072/v1

[ moleculetype ]
ligand 1

[ atoms ]
1 SN3a 1 LIG B1 1 0.0  0.0
2 TN6d 1 LIG B2 2 0.0 54.0
3 TN4a 1 LIG B3 3 0.0 54.0
4 TC5  1 LIG B4 4 0.0 54.0
5 TC5  1 LIG B5 5 0.0 36.0
6 X4   1 LIG B6 6 0.0 72.0

[ bonds ]
  2   5  1 0.684    25000.000 ; bond3 (69335.19)
  3   6  1 0.368    23025.816 ; bond2
  5   6  1 0.269    25000.000 ; bond1 (28638.097)

[ constraints ]
2 3 1 0.425 100000
2 4 1 0.559 100000
3 4 1 0.252 100000
3 5 1 0.253 100000
4 5 1 0.250 100000

[ angles ]
  4   5   6  2 144.296    141.527 ; angle1

[ virtual_sites3 ]
1 3 2 4 4 0.575035 0.111147 0.022902

[ exclusions ]
1 2 3 4 5 6 
2 3 4 5 6 
3 4 5 6 
4 5 6 
5 6 
