CHEMBL1083517
12
    1LIG     B1    1   1.192   0.018  -0.088
    1LIG     B2    2   1.185  -0.183  -0.008
    1LIG     B3    3   1.281  -0.285   0.094
    1LIG     B4    4   1.058  -0.354  -0.024
    1LIG     B5    5   1.189  -0.582   0.197
    1LIG     B6    6   1.437  -0.459   0.159
    1LIG     B7    7   1.484  -0.353   0.377
    1LIG     B8    8   1.532  -0.587   0.365
    1LIG     B9    9   1.475  -0.391   0.680
    1LIG    B10   10   1.295  -1.079   0.177
    1LIG    B11   11   1.334  -0.839   0.065
    1LIG    B12   12   1.224  -0.859   0.331
10 10 10
