206
11
    1LIG     B1    1   2.076  -0.061  -1.123
    1LIG     B2    2   1.926  -0.011  -1.014
    1LIG     B3    3   1.815   0.156  -0.896
    1LIG     B4    4   1.927  -0.229  -1.082
    1LIG     B5    5   2.305  -0.043  -1.090
    1LIG     B6    6   2.419  -0.099  -0.892
    1LIG     B7    7   2.545  -0.037  -1.080
    1LIG     B8    8   2.548   0.067  -1.343
    1LIG     B9    9   2.765   0.025  -1.183
    1LIG    B10   10   2.740  -0.177  -0.874
    1LIG    B11   11   2.803   0.082  -0.785
10 10 10
