CHEMBL1086410
12
    1LIG     B1    1   1.194   0.040  -0.096
    1LIG     B2    2   1.185  -0.185  -0.008
    1LIG     B3    3   1.280  -0.286   0.095
    1LIG     B4    4   1.058  -0.355  -0.024
    1LIG     B5    5   1.189  -0.583   0.197
    1LIG     B6    6   1.437  -0.457   0.160
    1LIG     B7    7   1.483  -0.353   0.376
    1LIG     B8    8   1.531  -0.587   0.365
    1LIG     B9    9   1.476  -0.390   0.680
    1LIG    B10   10   1.276  -0.788   0.201
    1LIG    B11   11   1.238  -0.980   0.306
    1LIG    B12   12   1.334  -0.961   0.075
10 10 10
