42-flipped
13
    1LIG     B1    1  -0.854   0.858  -1.104
    1LIG     B2    2  -0.761   0.977  -0.816
    1LIG     B3    3  -0.753   1.032  -1.118
    1LIG     B4    4  -0.745   1.118  -1.353
    1LIG     B5    5  -0.632   1.215  -1.087
    1LIG     B6    6  -0.575   1.408  -1.258
    1LIG     B7    7  -0.382   1.376  -1.124
    1LIG     B8    8  -0.171   1.356  -1.114
    1LIG     B9    9  -0.580   1.207  -0.705
    1LIG    B10   10  -0.480   0.966  -0.806
    1LIG    B11   11  -0.397   1.190  -0.706
    1LIG    B12   12  -0.178   0.999  -0.781
    1LIG    B13   13  -0.156   1.308  -0.647
10 10 10
