17-flipped
12
    1LIG     B1    1  -0.762   0.978  -0.816
    1LIG     B2    2  -0.753   1.032  -1.118
    1LIG     B3    3  -0.854   0.859  -1.104
    1LIG     B4    4  -0.745   1.118  -1.354
    1LIG     B5    5  -0.632   1.216  -1.088
    1LIG     B6    6  -0.571   1.406  -1.258
    1LIG     B7    7  -0.356   1.437  -1.146
    1LIG     B8    8  -0.571   1.061  -0.767
    1LIG     B9    9  -0.406   1.019  -0.782
    1LIG    B10   10  -0.496   1.247  -0.681
    1LIG    B11   11  -0.180   1.190  -0.698
    1LIG    B12   12  -0.183   0.871  -0.844
10 10 10
