; This file was generated using the following command:
; /remote/au011/walter/programs/uvenv-ml/bin/ff_inter -f mapped.xtc -s mapped.tpr -i ../mapping.itp -temperature 298 -interactions comments -dists -plots -constraints 10000000 -max-dihedral 3
; 

; Please cite the following papers:
; Kroon, P C; Grunewald, F; Barnoud, J; van Tilburg, M; Souza, P C; Wassenaar, T A; Marrink, S J;  elife 2024; 10.7554/elife.90627.2
; {Brasnett, C; Fidlin, M; Duve, T; Thallmair, S; Marrink, S J; Grünewald, F;   {ChemRxiv  {2026;  {10.26434/chemrxiv.15001072/v1

[ moleculetype ]
ligand 1

[ atoms ]
 1 TC4  1 LIG B1   1 0.0 60.0
 2 TC5  1 LIG B2   2 0.0  0.0
 3 TN6  1 LIG B3   3 0.0 60.0
 4 TC5  1 LIG B4   4 0.0 36.0
 5 TC5  1 LIG B5   5 0.0  0.0
 6 TN6a 1 LIG B6   6 0.0 60.0
 7 TN2  1 LIG B7   7 0.0 36.0
 8 TC5  1 LIG B8   8 0.0 48.0
 9 TC5  1 LIG B9   9 0.0  0.0
10 TC5  1 LIG B10 10 0.0 48.0
11 TN6a 1 LIG B11 11 0.0 36.0
12 TN2  1 LIG B12 12 0.0 48.0

[ bonds ]
  1   4  1 0.543     9983.684 ; bond6
  1   8  1 0.222    25000.000 ; bond1 (97015.701)
  3   6  1 0.621    25000.000 ; bond5 (50133.559)
  6   7  1 0.242    25000.000 ; bond2 (80680.424)
  8  11  1 0.419    25000.000 ; bond3 (114666.899)
 10  12  1 0.5      25000.000 ; bond4 (90277.378)

[ constraints ]
 1  3 1 0.325 100000
 1  6 1 0.645 100000
 3  4 1 0.376 100000
 4  6 1 0.350 100000
 8 10 1 0.218 100000
 8 12 1 0.439 100000
10 11 1 0.321 100000
11 12 1 0.351 100000

[ angles ]
  3   1   8  2 107.605     16.327 ; angle1
  1   6   7  2 109.500      6.076 ; angle3
  4   6   7  2 113.500      9.869 ; angle5
  1   8  10  2 133.113     90.451 ; angle2
  1   8  12  2 125.285      72.34 ; angle4

[ dihedrals ]
; dihedral1
 3  1  8 10 11 1.0 3.988 0.187 14.239 -0.585 3.599 ; dihedral1

[ virtual_sites3 ]
 2  3  1  6 4 0.113157 0.297601 -0.033584
 5  6  1  3 4 0.379020 0.031875 0.116509
 9  8 10 12 4 0.174611 0.391833 0.001230

[ exclusions ]
 1  2  3  4  5  6  7  8  9 10 11 12 
 2  3  4  5  6  7  8  9 10 11 12 
 3  4  5  6  7  8  9 10 11 12 
 4  5  6  7  8  9 10 
 5  6  7  8  9 10 
 6  7  8 
 8  9 10 11 12 
 9 10 11 12 
10 11 12 
11 12 
