237
11
    1LIG     B1    1   2.090  -0.085  -1.109
    1LIG     B2    2   1.944  -0.021  -1.003
    1LIG     B3    3   1.842   0.157  -0.894
    1LIG     B4    4   1.924  -0.237  -1.074
    1LIG     B5    5   2.322  -0.077  -1.078
    1LIG     B6    6   2.437  -0.130  -0.880
    1LIG     B7    7   2.555  -0.026  -1.053
    1LIG     B8    8   2.550   0.098  -1.303
    1LIG     B9    9   2.775   0.034  -1.161
    1LIG    B10   10   2.765  -0.133  -0.841
    1LIG    B11   11   2.740   0.098  -0.734
10 10 10
