; This file was generated using the following command:
; /remote/au011/walter/programs/uvenv-ml/bin/ff_inter -f mapped.xtc -s mapped.tpr -i ../mapping.itp -temperature 298 -interactions comments -dists -plots -constraints 10000000 -max-dihedral 3
; 

; Please cite the following papers:
; Kroon, P C; Grunewald, F; Barnoud, J; van Tilburg, M; Souza, P C; Wassenaar, T A; Marrink, S J;  elife 2024; 10.7554/elife.90627.2
; {Brasnett, C; Fidlin, M; Duve, T; Thallmair, S; Marrink, S J; Grünewald, F;   {ChemRxiv  {2026;  {10.26434/chemrxiv.15001072/v1

[ moleculetype ]
ligand 1

[ atoms ]
 1 TC5  1 LIG B1   1 0.0  36.0
 2 TC5  1 LIG B2   2 0.0  36.0
 3 TN4a 1 LIG B3   3 0.0  36.0
 4 SX4  1 LIG B4   4 0.0  36.0
 5 SN2a 1 LIG B5   5 0.0  90.0
 6 TC5  1 LIG B6   6 0.0   0.0
 7 TC5  1 LIG B7   7 0.0   0.0
 8 X4   1 LIG B8   8 0.0 108.0
 9 TN6  1 LIG B9   9 0.0   0.0
10 SP3  1 LIG B10 10 0.0  90.0
11 SX4  1 LIG B11 11 0.0  54.0

[ bonds ]
  1   5  1 0.264    25000.000 ; bond1 (28237.85)
  2   3  1 0.237    25000.000 ; bond2 (176880.734)
 10  11  1 0.247    25000.000 ; bond3 (101901.709)

[ constraints ]
 1  2 1 0.192 100000
 1  4 1 0.228 100000
 2  4 1 0.228 100000
 5  8 1 0.365 100000
 5 10 1 0.506 100000
 8 10 1 0.559 100000

[ angles ]
  2   1   5  2 134.634     51.047 ; angle1
  4   1   5  2 137.162     36.781 ; angle2
  1   2   3  2 149.567    187.869 ; angle3
  3   2   4  2 145.940    153.672 ; angle4
  1   5   8  2 107.937     53.253 ; angle5
  1   5  10  2 152.830     231.17 ; angle6
  5  10  11  2  90.982     48.216 ; angle7
  8  10  11  2  90.897     48.214 ; angle8

[ virtual_sites3 ]
 6 10  5  8 4 0.888349 -0.331814 -0.198889
 7  8  5 10 4 0.312153 0.368786 0.102084
 9  8 10  5 4 0.548582 -0.454835 0.112920

[ exclusions ]
 1  2  3  4  5  6  7  8  9 10 11 
 2  3  4  5  6  7  8  9 10 
 3  4  5  6  7 
 4  5  6  7  8  9 10 
 5  6  7  8  9 10 11 
 6  7  8  9 10 11 
 7  8  9 10 11 
 8  9 10 11 
 9 10 11 
10 11 
