CAT-17c
12
    1LIG     B1    1   1.539   0.212  -0.214
    1LIG     B2    2   1.473   0.406  -0.306
    1LIG     B3    3   1.512   0.360  -0.091
    1LIG     B4    4   1.514   0.446   0.124
    1LIG     B5    5   1.580   0.009  -0.252
    1LIG     B6    6   1.665  -0.138  -0.398
    1LIG     B7    7   1.566  -0.178  -0.202
    1LIG     B8    8   1.637  -0.510  -0.071
    1LIG     B9    9   1.556  -0.285   0.018
    1LIG    B10   10   1.307  -0.304  -0.123
    1LIG    B11   11   1.185  -0.235   0.104
    1LIG    B12   12   1.438  -0.229   0.253
10 10 10
