; This file was generated using the following command:
; /remote/au011/walter/programs/uvenv-ml/bin/ff_inter -f mapped.xtc -s mapped.tpr -i ../mapping.itp -temperature 298 -interactions comments -dists -plots -constraints 10000000 -max-dihedral 3
; 

; Please cite the following papers:
; Kroon, P C; Grunewald, F; Barnoud, J; van Tilburg, M; Souza, P C; Wassenaar, T A; Marrink, S J;  elife 2024; 10.7554/elife.90627.2
; {Brasnett, C; Fidlin, M; Duve, T; Thallmair, S; Marrink, S J; Grünewald, F;   {ChemRxiv  {2026;  {10.26434/chemrxiv.15001072/v1

[ moleculetype ]
ligand 1

[ atoms ]
 1 SQ5n  1 LIG B1   1 -1.0 66.0
 2 TN6d  1 LIG B2   2  0.0  0.0
 3 TC4   1 LIG B3   3  0.0 60.0
 4 TC5   1 LIG B4   4  0.0  0.0
 5 TC5   1 LIG B5   5  0.0 60.0
 6 TC5   1 LIG B6   6  0.0 48.0
 7 SN4ah 1 LIG B7   7  0.0 54.0
 8 SX3   1 LIG B8   8  0.0 54.0
 9 TC5   1 LIG B9   9  0.0 36.0
10 TC5   1 LIG B10 10  0.0 36.0

[ bonds ]
  1   6  1 0.625    25000.000 ; bond4 (67716.759)
  3   7  1 0.255    25000.000 ; bond1 (69629.903)
  7   9  1 0.408     2180.056 ; bond2
  7  10  1 0.408     2182.505 ; bond3

[ constraints ]
 1  3 1 0.361 100000
 1  5 1 0.612 100000
 3  5 1 0.546 100000
 3  6 1 0.396 100000
 5  6 1 0.293 100000
 8  9 1 0.253 100000
 8 10 1 0.253 100000
 9 10 1 0.287 100000

[ angles ]
  1   3   7  2 106.900     52.651 ; angle5
  6   3   7  2 102.701      44.43 ; angle4
  3   7   9  2 138.176     25.484 ; angle1
  3   7  10  2 139.241     26.788 ; angle2
  7   9   8  2 120.668     59.577 ; angle3

[ virtual_sites3 ]
 2  1  3  5 4 -0.073942 0.401923 -0.033601
 4  5  6  3 4 -0.196511 0.530018 -0.151516

[ exclusions ]
 1  2  3  4  5  6  7 
 2  3  4  5  6  7 
 3  4  5  6  7  8  9 10 
 4  5  6  7 
 5  6  7 
 6  7 
 7  8  9 10 
 8  9 10 
 9 10 
