33
10
    1LIG     B1    1   0.321  -4.951   0.666
    1LIG     B2    2   0.121  -5.073   0.665
    1LIG     B3    3   0.048  -4.764   0.522
    1LIG     B4    4  -0.071  -5.023   0.618
    1LIG     B5    5  -0.231  -5.215   0.652
    1LIG     B6    6  -0.302  -4.948   0.556
    1LIG     B7    7  -0.036  -4.618   0.708
    1LIG     B8    8  -0.603  -4.484   0.746
    1LIG     B9    9  -0.392  -4.601   0.821
    1LIG    B10   10  -0.419  -4.457   0.574
10 10 10
