26
14
    1LIG     B1    1  -0.855   0.857  -1.103
    1LIG     B2    2  -0.755   1.030  -1.117
    1LIG     B3    3  -0.763   0.977  -0.816
    1LIG     B4    4  -0.635   1.212  -1.088
    1LIG     B5    5  -0.745   1.110  -1.354
    1LIG     B6    6  -0.483   1.370  -1.111
    1LIG     B7    7  -0.533   1.434  -1.383
    1LIG     B8    8  -0.417   1.561  -1.221
    1LIG     B9    9  -0.451   0.966  -0.810
    1LIG    B10   10  -0.575   1.203  -0.704
    1LIG    B11   11  -0.370   1.147  -0.729
    1LIG    B12   12  -0.205   1.329  -0.656
    1LIG    B13   13  -0.041   1.148  -0.717
    1LIG    B14   14   0.040   1.451  -0.603
10 10 10
