; This file was generated using the following command:
; /remote/au011/walter/programs/uvenv-ml/bin/ff_inter -f mapped.xtc -s mapped.tpr -i ../mapping.itp -temperature 298 -interactions comments -dists -plots -constraints 10000000 -max-dihedral 3
; 

; Please cite the following papers:
; {Brasnett, C; Fidlin, M; Duve, T; Thallmair, S; Marrink, S J; Grünewald, F;   {ChemRxiv  {2026;  {10.26434/chemrxiv.15001072/v1
; Kroon, P C; Grunewald, F; Barnoud, J; van Tilburg, M; Souza, P C; Wassenaar, T A; Marrink, S J;  elife 2024; 10.7554/elife.90627.2

[ moleculetype ]
ligand 1

[ atoms ]
 1 TN6  1 LIG B1   1 0.0 48.0
 2 TC5  1 LIG B2   2 0.0  0.0
 3 TC4  1 LIG B3   3 0.0 36.0
 4 TC5  1 LIG B4   4 0.0 48.0
 5 TC5  1 LIG B5   5 0.0 48.0
 6 TN6  1 LIG B6   6 0.0 36.0
 7 TN6a 1 LIG B7   7 0.0 36.0
 8 TC2  1 LIG B8   8 0.0 36.0
 9 TC5  1 LIG B9   9 0.0 36.0
10 TC5  1 LIG B10 10 0.0 36.0
11 TC5  1 LIG B11 11 0.0 36.0
12 TC5  1 LIG B12 12 0.0 36.0
13 TN6a 1 LIG B13 13 0.0 36.0
14 TN2  1 LIG B14 14 0.0 36.0

[ bonds ]
  1   4  1 0.412    25000.000 ; bond8 (130722.662)
  3   5  1 0.534    25000.000 ; bond9 (50770.453)
  3   9  1 0.328    25000.000 ; bond2 (71296.893)
  3  10  1 0.328    25000.000 ; bond3 (69047.004)
  4   6  1 0.221    25000.000 ; bond1 (72611.491)
  4   7  1 0.412    25000.000 ; bond6 (27224.853)
  5   6  1 0.447    25000.000 ; bond5 (57077.219)
 11  12  1 0.259    25000.000 ; bond4 (85166.508)
 11  13  1 0.331    25000.000 ; bond7 (72472.297)

[ constraints ]
 1  3 1 0.324 100000
 1  5 1 0.373 100000
 3  4 1 0.382 100000
 4  5 1 0.306 100000
 6  7 1 0.284 100000
 6  8 1 0.231 100000
 7  8 1 0.236 100000
 9 10 1 0.287 100000
 9 11 1 0.214 100000
10 11 1 0.214 100000
12 13 1 0.252 100000
12 14 1 0.279 100000
13 14 1 0.334 100000

[ angles ]
  1   3  10  2  94.025     48.441 ; angle1
  4   3   9  2 151.619    169.783 ; angle8
  3   4   6  2 133.480     91.549 ; angle2
  4   6   8  2 150.074    193.674 ; angle3
  3  10  11  2 110.473     54.921 ; angle4
  9  11  12  2 110.773     55.138 ; angle6
 10  11  12  2 157.737    335.823 ; angle5
 11  12  14  2 159.490    392.653 ; angle7

[ dihedrals ]
; dihedral1
 5  4  6  7 11 1.0 20.649 -15.765 -7.808 0.278 3.703 ; dihedral1

; dihedral2
 1  3 10  9 11 1.0 1.2 0.487 11.504 0.506 0.328 ; dihedral2

; dihedral3
10 11 12 13 11 1.0 144.357 -109.03 -48.019 14.748 17.944 ; dihedral3

[ virtual_sites3 ]
 2  4  5  1 4 0.084010 0.494030 0.028370

[ exclusions ]
 1  2  3  4  5  6  7  8  9 10 11 
 2  3  4  5  6  7  8  9 10 
 3  4  5  6  7  8  9 10 11 12 13 
 4  5  6  7  8  9 10 11 
 5  6  7  8  9 10 
 6  7  8  9 10 
 7  8 
 9 10 11 12 13 14 
10 11 12 13 14 
11 12 13 14 
12 13 14 
13 14 
