44
12
    1LIG     B1    1   0.321  -4.952   0.666
    1LIG     B2    2   0.121  -5.072   0.665
    1LIG     B3    3   0.049  -4.765   0.515
    1LIG     B4    4  -0.071  -5.022   0.616
    1LIG     B5    5  -0.231  -5.214   0.652
    1LIG     B6    6  -0.302  -4.947   0.556
    1LIG     B7    7  -0.028  -4.617   0.703
    1LIG     B8    8  -0.487  -4.465   0.668
    1LIG     B9    9  -0.303  -4.608   0.787
    1LIG    B10   10  -0.553  -4.584   0.896
    1LIG    B11   11  -0.692  -4.327   0.600
    1LIG    B12   12  -0.450  -4.349   0.443
10 10 10
