; This file was generated using the following command:
; /remote/au011/walter/programs/uvenv-ml/bin/ff_inter -f mapped.xtc -s mapped.tpr -i ../mapping.itp -temperature 298 -interactions comments -dists -plots -constraints 10000000 -max-dihedral 3
; 

; Please cite the following papers:
; Kroon, P C; Grunewald, F; Barnoud, J; van Tilburg, M; Souza, P C; Wassenaar, T A; Marrink, S J;  elife 2024; 10.7554/elife.90627.2
; {Brasnett, C; Fidlin, M; Duve, T; Thallmair, S; Marrink, S J; Grünewald, F;   {ChemRxiv  {2026;  {10.26434/chemrxiv.15001072/v1

[ moleculetype ]
ligand 1

[ atoms ]
 1 SQ5n  1 LIG B1   1 -1.0 66.0
 2 TN6d  1 LIG B2   2  0.0  0.0
 3 TC4   1 LIG B3   3  0.0 60.0
 4 TC5   1 LIG B4   4  0.0  0.0
 5 TC5   1 LIG B5   5  0.0 60.0
 6 TC5   1 LIG B6   6  0.0 48.0
 7 SN4ah 1 LIG B7   7  0.0 54.0
 8 TC5   1 LIG B8   8  0.0  0.0
 9 TC5   1 LIG B9   9  0.0 48.0
10 SX3   1 LIG B10 10  0.0 66.0
11 TC5   1 LIG B11 11  0.0 48.0
12 TC5   1 LIG B12 12  0.0 36.0

[ bonds ]
  1   6  1 0.626    25000.000 ; bond4 (70705.671)
  3   7  1 0.255    25000.000 ; bond1 (69643.836)
  7   9  1 0.303    25000.000 ; bond2 (36739.853)
 10  12  1 0.52     25000.000 ; bond3 (165608.011)

[ constraints ]
 1  3 1 0.363 100000
 1  5 1 0.611 100000
 3  5 1 0.547 100000
 3  6 1 0.398 100000
 5  6 1 0.293 100000
 9 10 1 0.274 100000
 9 11 1 0.515 100000
 9 12 1 0.454 100000
10 11 1 0.416 100000
11 12 1 0.289 100000

[ angles ]
  1   3   7  2 105.803     52.063 ; angle5
  6   3   7  2 105.494     51.906 ; angle4
  3   7   9  2 137.208    104.446 ; angle1
  7   9  10  2 160.139    417.612 ; angle2
  7   9  12  2  76.606     50.935 ; angle3

[ dihedrals ]
; dihedral1
 1  3  7  9 11 1.0 8.407 12.604 -2.079 -13.815 4.357 ; dihedral1

; dihedral2
 3  7  9 12 11 1.0 14.143 -0.873 -9.987 5.293 5.161 ; dihedral2

[ virtual_sites3 ]
 2  1  3  5 4 -0.068150 0.399977 -0.036709
 4  5  6  3 4 -0.190570 0.527193 -0.171135
 8 11  9 10 4 0.576411 -0.118090 0.070117

[ exclusions ]
 1  2  3  4  5  6  7  9 
 2  3  4  5  6  7  9 
 3  4  5  6  7  8  9 10 12 
 4  5  6  7  9 
 5  6  7 
 6  7  9 
 7  8  9 10 11 12 
 8  9 10 11 12 
 9 10 11 12 
10 11 12 
11 12 
