2r
13
    1LIG     B1    1   2.862   0.898   3.195
    1LIG     B2    2   2.672   0.817   3.150
    1LIG     B3    3   2.462   0.765   3.110
    1LIG     B4    4   2.316   1.010   3.120
    1LIG     B5    5   2.130   1.315   3.136
    1LIG     B6    6   2.163   0.797   3.048
    1LIG     B7    7   2.031   1.000   3.059
    1LIG     B8    8   1.954   1.215   3.083
    1LIG     B9    9   2.350   1.237   3.213
    1LIG    B10   10   2.487   1.345   3.037
    1LIG    B11   11   1.708   1.093   3.200
    1LIG    B12   12   1.504   1.081   3.052
    1LIG    B13   13   1.669   1.222   2.939
10 10 10
