; This file was generated using the following command:
; /remote/au011/walter/programs/uvenv-ml/bin/ff_inter -f mapped.xtc -s mapped.tpr -i ../mapping.itp -temperature 298 -interactions comments -dists -plots -constraints 10000000 -max-dihedral 3
; 

; Please cite the following papers:
; {Brasnett, C; Fidlin, M; Duve, T; Thallmair, S; Marrink, S J; Grünewald, F;   {ChemRxiv  {2026;  {10.26434/chemrxiv.15001072/v1
; Kroon, P C; Grunewald, F; Barnoud, J; van Tilburg, M; Souza, P C; Wassenaar, T A; Marrink, S J;  elife 2024; 10.7554/elife.90627.2

[ moleculetype ]
ligand 1

[ atoms ]
 1 TC5  1 LIG B1   1 0.0  36.0
 2 TC5  1 LIG B2   2 0.0  36.0
 3 TN4a 1 LIG B3   3 0.0  36.0
 4 SX4  1 LIG B4   4 0.0  36.0
 5 SN2a 1 LIG B5   5 0.0  90.0
 6 TC5  1 LIG B6   6 0.0   0.0
 7 TC5  1 LIG B7   7 0.0   0.0
 8 X4   1 LIG B8   8 0.0 108.0
 9 TN6  1 LIG B9   9 0.0   0.0
10 P4   1 LIG B10 10 0.0 108.0

[ bonds ]
  1   5  1 0.266    17193.716 ; bond1
  2   3  1 0.237    25000.000 ; bond2 (180699.256)

[ constraints ]
 1  2 1 0.191 100000
 1  4 1 0.228 100000
 2  4 1 0.228 100000
 5  8 1 0.368 100000
 5 10 1 0.530 100000
 8 10 1 0.568 100000

[ angles ]
  2   1   5  2 129.728     81.492 ; angle1
  4   1   5  2 139.125     35.237 ; angle2
  1   2   3  2 149.471    186.802 ; angle3
  3   2   4  2 146.010    154.229 ; angle4
  1   5   8  2 104.707     42.779 ; angle5
  1   5  10  2 150.309    154.478 ; angle6

[ dihedrals ]
; dihedral1
 4  1  5  8 11 1.0 11.056 11.301 4.462 -7.353 0.655 ; dihedral1

[ virtual_sites3 ]
 6 10  5  8 4 0.925976 -0.350148 0.231786
 7  8  5 10 4 0.346426 0.349276 -0.152705
 9  8 10  5 4 0.519262 -0.392876 -0.130669

[ exclusions ]
 1  2  3  4  5  6  7  8  9 10 
 2  3  4  5  6  7  8  9 10 
 3  4  5  6  7 
 4  5  6  7  8  9 10 
 5  6  7  8  9 10 
 6  7  8  9 10 
 7  8  9 10 
 8  9 10 
 9 10 
