163
10
    1LIG     B1    1   2.099  -0.063  -1.107
    1LIG     B2    2   1.944  -0.010  -1.008
    1LIG     B3    3   1.829   0.159  -0.895
    1LIG     B4    4   1.937  -0.223  -1.089
    1LIG     B5    5   2.332  -0.052  -1.076
    1LIG     B6    6   2.450  -0.116  -0.883
    1LIG     B7    7   2.571  -0.034  -1.066
    1LIG     B8    8   2.575   0.055  -1.330
    1LIG     B9    9   2.777   0.084  -1.154
    1LIG    B10   10   2.789  -0.016  -0.809
10 10 10
