1_1W7H
7
    1LIG     B1    1   0.363   1.112   3.024
    1LIG     B2    2   0.562   1.149   3.077
    1LIG     B3    3   0.773   1.076   3.059
    1LIG     B4    4   0.701   1.268   3.207
    1LIG     B5    5   0.064   0.988   2.930
    1LIG     B6    6   0.268   0.830   3.204
    1LIG     B7    7   0.005   0.764   3.049
10 10 10
