CHEMBL1078998
10
    1LIG     B1    1   1.191   0.035  -0.098
    1LIG     B2    2   1.188  -0.188  -0.008
    1LIG     B3    3   1.061  -0.359  -0.025
    1LIG     B4    4   1.283  -0.289   0.095
    1LIG     B5    5   1.193  -0.587   0.191
    1LIG     B6    6   1.439  -0.458   0.159
    1LIG     B7    7   1.479  -0.349   0.416
    1LIG     B8    8   1.532  -0.586   0.367
    1LIG     B9    9   1.345  -0.965   0.077
    1LIG    B10   10   1.223  -0.902   0.268
10 10 10
