41
14
    1LIG     B1    1  -0.854   0.859  -1.104
    1LIG     B2    2  -0.762   0.977  -0.816
    1LIG     B3    3  -0.751   1.031  -1.119
    1LIG     B4    4  -0.743   1.118  -1.355
    1LIG     B5    5  -0.628   1.213  -1.089
    1LIG     B6    6  -0.577   1.411  -1.251
    1LIG     B7    7  -0.391   1.375  -1.099
    1LIG     B8    8  -0.176   1.390  -1.165
    1LIG     B9    9  -0.452   0.966  -0.810
    1LIG    B10   10  -0.575   1.203  -0.704
    1LIG    B11   11  -0.370   1.147  -0.729
    1LIG    B12   12  -0.205   1.329  -0.656
    1LIG    B13   13  -0.041   1.149  -0.718
    1LIG    B14   14   0.039   1.452  -0.602
10 10 10
