CHEMBL3402742_23
13
    1LIG     B1    1   2.307   3.254   4.881
    1LIG     B2    2   1.886   2.862   5.432
    1LIG     B3    3   1.945   2.949   5.229
    1LIG     B4    4   1.771   2.755   5.265
    1LIG     B5    5   1.928   2.928   5.635
    1LIG     B6    6   1.893   2.724   5.725
    1LIG     B7    7   2.171   3.207   5.776
    1LIG     B8    8   2.287   3.275   5.640
    1LIG     B9    9   2.381   3.245   5.837
    1LIG    B10   10   2.358   3.346   5.439
    1LIG    B11   11   2.513   3.361   5.148
    1LIG    B12   12   2.039   2.916   5.934
    1LIG    B13   13   1.976   3.135   5.831
10 10 10
