15
12
    1LIG     B1    1  -0.239   1.176   2.409
    1LIG     B2    2   0.032   1.102   2.444
    1LIG     B3    3  -0.103   0.978   2.758
    1LIG     B4    4   0.131   0.977   2.636
    1LIG     B5    5   0.242   0.816   2.831
    1LIG     B6    6   0.300   1.035   2.496
    1LIG     B7    7   0.528   0.945   2.343
    1LIG     B8    8   0.601   1.191   2.399
    1LIG     B9    9   0.723   1.074   2.289
    1LIG    B10   10   0.517   1.356   2.506
    1LIG    B11   11   0.588   1.521   2.641
    1LIG    B12   12   0.357   1.509   2.539
10 10 10
