34
11
    1LIG     B1    1   0.321  -4.951   0.666
    1LIG     B2    2   0.120  -5.073   0.665
    1LIG     B3    3   0.047  -4.764   0.522
    1LIG     B4    4  -0.071  -5.023   0.618
    1LIG     B5    5  -0.232  -5.215   0.652
    1LIG     B6    6  -0.302  -4.948   0.556
    1LIG     B7    7  -0.035  -4.618   0.709
    1LIG     B8    8  -0.555  -4.496   0.733
    1LIG     B9    9  -0.391  -4.602   0.821
    1LIG    B10   10  -0.418  -4.457   0.574
    1LIG    B11   11  -0.761  -4.449   0.784
10 10 10
