CHEMBL1084676
14
    1LIG     B1    1   1.192   0.018  -0.088
    1LIG     B2    2   1.185  -0.183  -0.009
    1LIG     B3    3   1.058  -0.354  -0.025
    1LIG     B4    4   1.281  -0.285   0.093
    1LIG     B5    5   1.193  -0.588   0.186
    1LIG     B6    6   1.437  -0.459   0.158
    1LIG     B7    7   1.483  -0.352   0.377
    1LIG     B8    8   1.532  -0.587   0.365
    1LIG     B9    9   1.276  -0.788   0.202
    1LIG    B10   10   1.238  -0.980   0.307
    1LIG    B11   11   1.334  -0.961   0.075
    1LIG    B12   12   1.436  -0.323   0.608
    1LIG    B13   13   1.572  -0.524   0.855
    1LIG    B14   14   1.555  -0.714   1.174
10 10 10
