; This file was generated using the following command:
; /remote/au011/walter/programs/uvenv-ml/bin/ff_inter -f mapped.xtc -s mapped.tpr -i ../mapping.itp -temperature 298 -interactions comments -dists -plots -constraints 10000000 -max-dihedral 3
; 

; Please cite the following papers:
; {Brasnett, C; Fidlin, M; Duve, T; Thallmair, S; Marrink, S J; Grünewald, F;   {ChemRxiv  {2026;  {10.26434/chemrxiv.15001072/v1
; Kroon, P C; Grunewald, F; Barnoud, J; van Tilburg, M; Souza, P C; Wassenaar, T A; Marrink, S J;  elife 2024; 10.7554/elife.90627.2

[ moleculetype ]
ligand 1

[ atoms ]
 1 SX4e 1 LIG B1   1 0.0 54.0
 2 TC5  1 LIG B2   2 0.0 84.0
 3 TC5  1 LIG B3   3 0.0  0.0
 4 TC5  1 LIG B4   4 0.0  0.0
 5 TN4  1 LIG B5   5 0.0 84.0
 6 TC3  1 LIG B6   6 0.0  0.0
 7 TN5r 1 LIG B7   7 0.0 84.0
 8 TC2  1 LIG B8   8 0.0  0.0
 9 TC5  1 LIG B9   9 0.0 36.0
10 TC5  1 LIG B10 10 0.0 36.0
11 TC5  1 LIG B11 11 0.0 36.0
12 TN3d 1 LIG B12 12 0.0 36.0
13 SN4a 1 LIG B13 13 0.0 54.0
14 Q2p  1 LIG B14 14 1.0 72.0

[ bonds ]
  1   2  1 0.222    25000.000 ; bond5 (104836.845)
  5   9  1 0.224    25000.000 ; bond4 (63134.133)
  7  12  1 0.216    25000.000 ; bond3 (47748.514)
 12  13  1 0.343    25000.000 ; bond2 (44972.603)
 13  14  1 0.372     5994.044 ; bond1

[ constraints ]
 2  5 1 0.449 100000
 2  7 1 0.516 100000
 5  7 1 0.420 100000
 9 10 1 0.222 100000
 9 11 1 0.222 100000
10 11 1 0.252 100000

[ angles ]
  1   2   5  2 174.893   6083.161 ; angle10
  1   2   7  2 120.157     64.474 ; angle7
  2   5   9  2 159.155    380.674 ; angle6
  7   5   9  2 104.117     51.251 ; angle5
  2   7  12  2 117.954     61.777 ; angle9
  5   7  12  2 114.248     57.981 ; angle8
  5   9  10  2 139.531    114.427 ; angle1
  5   9  11  2 142.597    130.644 ; angle2
  7  12  13  2 150.664    200.815 ; angle3
 12  13  14  2 147.617    168.044 ; angle4

[ dihedrals ]
; dihedral1
 2  5  7 12 11 1.0 9.577 47.396 63.744 -30.411 -21.548 ; dihedral1

; dihedral2
 1  2  7  5 11 1.0 82.326 37.014 -7.166 18.448 -16.533 ; dihedral2

; dihedral3
 7  5  9 10 11 1.0 11.887 46.467 31.494 -50.199 12.168 ; dihedral3

[ virtual_sites3 ]
 3  5  2  7 4 0.785359 -0.387502 -0.130860
 4  2  7  5 4 0.250406 0.126182 0.166566
 6  5  7  2 4 0.499645 0.137047 -0.809416
 8  7  5  2 4 0.540946 -0.431132 0.624815

[ exclusions ]
 1  2  3  4  5  6  7  8  9 12 
 2  3  4  5  6  7  8  9 10 11 12 
 3  4  5  6  7  8  9 10 11 12 
 4  5  6  7  8  9 10 11 12 13 
 5  6  7  8  9 10 11 12 
 6  7  8  9 10 11 12 13 
 7  8  9 10 11 12 13 14 
 8  9 10 11 12 13 
 9 10 11 12 
10 11 
12 13 14 
13 14 
