[ B1 ]
27 30 28 29
[ B2 ]
26 25 62 31 63
[ B3 ]
25 62 24 61 23
[ B4 ]
31 63 32 23
[ B5 ]
22 60 15 54
[ B6 ]
14 53 33 64
[ B7 ]
34 11 48
[ B8 ]
12 49 50 13 51 52
[ B9 ]
16 21 59 17 55
[ B10 ]
17 55 18 56 19 57
[ B11 ]
19 57 20 58 21 59
[ B12 ]
10 46 47 9 45
[ B13 ]
6 43 5 44 7 8
[ B14 ]
2 65 1 35 36 37 3 38 39 40 4 41 42
