; This file was generated using the following command:
; /remote/au011/walter/programs/uvenv-ml/bin/ff_inter -f mapped.xtc -s mapped.tpr -i ../mapping.itp -temperature 298 -interactions comments -dists -plots -constraints 10000000 -max-dihedral 3
; 

; Please cite the following papers:
; Kroon, P C; Grunewald, F; Barnoud, J; van Tilburg, M; Souza, P C; Wassenaar, T A; Marrink, S J;  elife 2024; 10.7554/elife.90627.2
; {Brasnett, C; Fidlin, M; Duve, T; Thallmair, S; Marrink, S J; Grünewald, F;   {ChemRxiv  {2026;  {10.26434/chemrxiv.15001072/v1

[ moleculetype ]
ligand 1

[ atoms ]
1 SC6 1 LIG B1 1 0.0 54.0
2 TN2 1 LIG B2 2 0.0 36.0
3 SC2 1 LIG B3 3 0.0 54.0

[ bonds ]
  2   3  1 0.254    18349.452 ; bond1

[ constraints ]
1 2 1 0.211 100000
1 3 1 0.445 100000

[ exclusions ]
1 2 3 
2 3 
