28
13
    1LIG     B1    1  -0.004   2.841   0.779
    1LIG     B2    2   0.232   2.908   0.621
    1LIG     B3    3   0.059   3.056   0.701
    1LIG     B4    4  -0.092   3.256   0.758
    1LIG     B5    5  -0.132   3.054   0.821
    1LIG     B6    6   0.445   2.542   0.701
    1LIG     B7    7   0.570   2.339   0.721
    1LIG     B8    8   0.323   2.265   0.861
    1LIG     B9    9   0.408   2.666   0.529
    1LIG    B10   10   0.338   2.693   0.806
    1LIG    B11   11  -0.051   2.682   0.877
    1LIG    B12   12  -0.095   2.537   1.026
    1LIG    B13   13  -0.112   2.362   1.182
10 10 10
