12
10
    1LIG     B1    1   3.262   4.314   3.659
    1LIG     B2    2   3.547   4.233   3.515
    1LIG     B3    3   3.355   4.063   3.654
    1LIG     B4    4   3.365   3.890   3.675
    1LIG     B5    5   3.548   3.906   3.564
    1LIG     B6    6   3.256   3.754   3.789
    1LIG     B7    7   3.121   3.752   3.969
    1LIG     B8    8   3.169   3.589   3.828
    1LIG     B9    9   3.203   3.350   3.832
    1LIG    B10   10   3.298   3.272   4.108
10 10 10
