; This file was generated using the following command:
; /remote/au011/walter/programs/uvenv-ml/bin/ff_inter -f mapped.xtc -s mapped.tpr -i ../mapping.itp -temperature 298 -interactions comments -dists -plots -constraints 10000000 -max-dihedral 3
; 

; Please cite the following papers:
; Kroon, P C; Grunewald, F; Barnoud, J; van Tilburg, M; Souza, P C; Wassenaar, T A; Marrink, S J;  elife 2024; 10.7554/elife.90627.2
; {Brasnett, C; Fidlin, M; Duve, T; Thallmair, S; Marrink, S J; Grünewald, F;   {ChemRxiv  {2026;  {10.26434/chemrxiv.15001072/v1

[ moleculetype ]
ligand 1

[ atoms ]
 1 TN5d 1 LIG B1   1 0.0 78.0
 2 TN4a 1 LIG B2   2 0.0  0.0
 3 SN4a 1 LIG B3   3 0.0  0.0
 4 TC4  1 LIG B4   4 0.0  0.0
 5 TP1  1 LIG B5   5 0.0 78.0
 6 SC3  1 LIG B6   6 0.0 96.0
 7 TC5  1 LIG B7   7 0.0 36.0
 8 SX4  1 LIG B8   8 0.0 36.0
 9 TC5  1 LIG B9   9 0.0 36.0
10 TC5  1 LIG B10 10 0.0 36.0
11 TC5  1 LIG B11 11 0.0 36.0
12 TC5  1 LIG B12 12 0.0 36.0

[ bonds ]
  6   7  1 0.311    25000.000 ; bond2 (50066.893)
  6   9  1 0.364    25000.000 ; bond3 (73682.92)
  9  10  1 0.226    25000.000 ; bond1 (85102.114)

[ constraints ]
 1  5 1 0.732 100000
 1  6 1 0.562 100000
 5  6 1 0.402 100000
 7  8 1 0.243 100000
 7  9 1 0.263 100000
 8  9 1 0.208 100000
10 11 1 0.224 100000
10 12 1 0.224 100000
11 12 1 0.252 100000

[ angles ]
  1   6   9  2 136.099    100.249 ; angle6
  5   6   9  2 118.874     62.859 ; angle7
  6   7   8  2 124.915     71.686 ; angle1
  7   9  10  2 134.170      93.69 ; angle2
  8   9  10  2 171.955   2461.016 ; angle3
  9  10  11  2 144.437    142.502 ; angle4
  9  10  12  2 143.732    137.741 ; angle5

[ dihedrals ]
; dihedral1
 1  6  9  8 11 1.0 17.98 59.577 33.782 -53.701 -3.013 ; dihedral1

; dihedral2
 7  9 10 12 11 1.0 23.659 24.215 -1.692 31.207 102.555 ; dihedral2

[ virtual_sites3 ]
 2  6  1  5 4 0.496553 -0.014710 -0.037841
 3  1  6  5 4 -0.547881 0.878661 -0.219263
 4  6  5  1 4 0.473100 0.265906 -0.044187

[ exclusions ]
 1  2  3  4  5  6  7  9 
 2  3  4  5  6  7  8  9 10 
 3  4  5  6  7  9 
 4  5  6  7  8  9 10 
 5  6  7  8  9 10 
 6  7  8  9 10 11 12 
 7  8  9 10 11 12 
 8  9 10 11 12 
 9 10 11 12 
10 11 12 
11 12 
