18
12
    1LIG     B1    1  -0.237   1.176   2.409
    1LIG     B2    2   0.033   1.101   2.444
    1LIG     B3    3  -0.104   0.978   2.758
    1LIG     B4    4   0.131   0.977   2.637
    1LIG     B5    5   0.242   0.816   2.829
    1LIG     B6    6   0.300   1.035   2.497
    1LIG     B7    7   0.526   0.943   2.346
    1LIG     B8    8   0.726   1.068   2.287
    1LIG     B9    9   0.599   1.191   2.397
    1LIG    B10   10   0.515   1.358   2.502
    1LIG    B11   11   0.584   1.525   2.633
    1LIG    B12   12   0.353   1.510   2.533
10 10 10
