12
9
    1LIG     B1    1  -0.237   1.176   2.410
    1LIG     B2    2  -0.104   0.977   2.758
    1LIG     B3    3   0.033   1.101   2.444
    1LIG     B4    4   0.131   0.977   2.636
    1LIG     B5    5   0.243   0.817   2.829
    1LIG     B6    6   0.300   1.037   2.497
    1LIG     B7    7   0.725   1.069   2.287
    1LIG     B8    8   0.521   0.945   2.338
    1LIG     B9    9   0.580   1.215   2.426
10 10 10
