; This file was generated using the following command:
; /remote/au011/walter/programs/uvenv-ml/bin/ff_inter -f mapped.xtc -s mapped.tpr -i ../mapping.itp -temperature 298 -interactions comments -dists -plots -constraints 10000000 -max-dihedral 3
; 

; Please cite the following papers:
; Kroon, P C; Grunewald, F; Barnoud, J; van Tilburg, M; Souza, P C; Wassenaar, T A; Marrink, S J;  elife 2024; 10.7554/elife.90627.2
; {Brasnett, C; Fidlin, M; Duve, T; Thallmair, S; Marrink, S J; Grünewald, F;   {ChemRxiv  {2026;  {10.26434/chemrxiv.15001072/v1

[ moleculetype ]
ligand 1

[ atoms ]
1 TN5d 1 LIG B1 1 0.0 78.0
2 SN4a 1 LIG B2 2 0.0  0.0
3 TN4a 1 LIG B3 3 0.0  0.0
4 TC4  1 LIG B4 4 0.0  0.0
5 TP1  1 LIG B5 5 0.0 78.0
6 SC3  1 LIG B6 6 0.0 96.0
7 SX4  1 LIG B7 7 0.0 36.0
8 TC5  1 LIG B8 8 0.0 36.0
9 TC5  1 LIG B9 9 0.0 36.0

[ bonds ]
  6   8  1 0.357    25000.000 ; bond1 (37672.391)
  6   9  1 0.355    25000.000 ; bond2 (33454.949)

[ constraints ]
1 5 1 0.731 100000
1 6 1 0.561 100000
5 6 1 0.403 100000
7 8 1 0.244 100000
7 9 1 0.248 100000
8 9 1 0.290 100000

[ angles ]
  1   6   9  2  80.567     49.533 ; angle2
  5   6   9  2  89.722     17.137 ; angle3
  6   8   7  2 117.821     61.625 ; angle1

[ dihedrals ]
; dihedral1
1 6 9 7 11 1.0 4.764 1.256 -0.505 -0.444 -0.657 ; dihedral1

[ virtual_sites3 ]
2 1 5 6 4 0.876089 -0.546449 0.221263
3 6 1 5 4 0.497406 -0.012297 -0.041204
4 6 5 1 4 0.473568 0.265969 -0.042393

[ exclusions ]
1 2 3 4 5 6 8 9 
2 3 4 5 6 8 9 
3 4 5 6 7 8 9 
4 5 6 7 8 9 
5 6 7 8 9 
6 7 8 9 
7 8 9 
8 9 
