6
8
    1LIG     B1    1   3.232   4.289   3.652
    1LIG     B2    2   3.516   4.212   3.504
    1LIG     B3    3   3.205   3.794   3.986
    1LIG     B4    4   3.152   3.565   3.811
    1LIG     B5    5   3.192   3.636   3.525
    1LIG     B6    6   3.335   3.834   3.702
    1LIG     B7    7   3.537   3.891   3.568
    1LIG     B8    8   3.336   4.038   3.660
10 10 10
