2k
11
    1LIG     B1    1   2.863   0.902   3.187
    1LIG     B2    2   2.672   0.821   3.145
    1LIG     B3    3   2.463   0.765   3.110
    1LIG     B4    4   2.163   0.797   3.048
    1LIG     B5    5   2.316   1.010   3.120
    1LIG     B6    6   2.031   1.000   3.059
    1LIG     B7    7   2.213   1.262   3.144
    1LIG     B8    8   1.954   1.215   3.083
    1LIG     B9    9   1.708   1.093   3.200
    1LIG    B10   10   1.669   1.222   2.938
    1LIG    B11   11   1.504   1.081   3.052
10 10 10
