; This file was generated using the following command:
; /remote/au011/walter/programs/uvenv-ml/bin/ff_inter -f mapped.xtc -s mapped.tpr -i ../mapping.itp -temperature 298 -interactions comments -dists -plots -constraints 10000000 -max-dihedral 3
; 

; Please cite the following papers:
; Kroon, P C; Grunewald, F; Barnoud, J; van Tilburg, M; Souza, P C; Wassenaar, T A; Marrink, S J;  elife 2024; 10.7554/elife.90627.2
; {Brasnett, C; Fidlin, M; Duve, T; Thallmair, S; Marrink, S J; Grünewald, F;   {ChemRxiv  {2026;  {10.26434/chemrxiv.15001072/v1

[ moleculetype ]
ligand 1

[ atoms ]
 1 TN6  1 LIG B1   1 0.0 60.0
 2 TC4  1 LIG B2   2 0.0 60.0
 3 TC5  1 LIG B3   3 0.0  0.0
 4 TC5  1 LIG B4   4 0.0 48.0
 5 TC5  1 LIG B5   5 0.0  0.0
 6 TN6a 1 LIG B6   6 0.0 48.0
 7 SN3a  1 LIG B7   7 0.0 54.0
 8 SN6  1 LIG B8   8 0.0 54.0
 9 TC5  1 LIG B9   9 0.0 36.0
10 TC5  1 LIG B10 10 0.0 36.0
11 TC5  1 LIG B11 11 0.0 36.0
12 TC5  1 LIG B12 12 0.0 36.0
13 TN6a 1 LIG B13 13 0.0 36.0
14 TN2  1 LIG B14 14 0.0 36.0

[ bonds ]
  1   6  1 0.62     25000.000 ; bond7 (68513.589)
  2   4  1 0.556    25000.000 ; bond8 (82517.904)
  2   9  1 0.329    25000.000 ; bond1 (73764.091)
  2  10  1 0.327    25000.000 ; bond2 (74162.48)
  6   7  1 0.234    25000.000 ; bond3 (122489.314)
  7   8  1 0.184    25000.000 ; bond5 (40390.461)
 11  12  1 0.259    25000.000 ; bond4 (83472.937)
 11  13  1 0.331    25000.000 ; bond6 (68228.604)

[ constraints ]
 1  2 1 0.324 100000
 1  4 1 0.376 100000
 2  6 1 0.643 100000
 4  6 1 0.352 100000
 9 10 1 0.288 100000
 9 11 1 0.214 100000
10 11 1 0.214 100000
12 13 1 0.251 100000
12 14 1 0.280 100000
13 14 1 0.335 100000

[ angles ]
  1   2   9  2 133.671     92.132 ; angle1
  6   2  10  2  69.504     54.937 ; angle9
  2   6   7  2  82.559     49.024 ; angle7
  4   6   7  2 114.875     58.564 ; angle8
  6   7   8  2 152.180    221.309 ; angle2
  2   9  11  2 109.987     54.579 ; angle3
  9  11  12  2 110.722     55.101 ; angle5
 10  11  12  2 157.423    327.019 ; angle4
 11  12  14  2 159.250    384.012 ; angle6

[ dihedrals ]
; dihedral1
 1  2 10  9 11 1.0 7.761 5.682 -18.229 1.317 29.39 ; dihedral1

; dihedral2
10 11 13 12 11 1.0 58.808 28.242 -7.261 12.111 -9.479 ; dihedral2

; dihedral3
 1  2  6  7 11 1.0 7.84 2.603 -20.557 5.23 32.014 ; dihedral3

[ virtual_sites3 ]
 3  4  1  2 4 0.100421 0.394324 -0.087526
 5  6  1  2 4 0.036402 0.375117 -0.121022

[ exclusions ]
 1  2  3  4  5  6  7  9 10 11 
 2  3  4  5  6  7  9 10 11 12 13 
 3  4  5  6  7  9 10 11 
 4  5  6  7  8  9 10 
 5  6  7  8  9 10 11 
 6  7  8  9 10 
 7  8 
 9 10 11 12 13 14 
10 11 12 13 14 
11 12 13 14 
12 13 14 
13 14 
