30
14
    1LIG     B1    1  -0.853   0.857  -1.104
    1LIG     B2    2  -0.763   0.977  -0.817
    1LIG     B3    3  -0.753   1.031  -1.118
    1LIG     B4    4  -0.745   1.117  -1.354
    1LIG     B5    5  -0.634   1.216  -1.087
    1LIG     B6    6  -0.575   1.409  -1.255
    1LIG     B7    7  -0.381   1.376  -1.124
    1LIG     B8    8  -0.169   1.356  -1.114
    1LIG     B9    9  -0.574   1.203  -0.704
    1LIG    B10   10  -0.451   0.966  -0.810
    1LIG    B11   11  -0.370   1.147  -0.729
    1LIG    B12   12  -0.208   1.328  -0.651
    1LIG    B13   13  -0.041   1.155  -0.722
    1LIG    B14   14   0.036   1.455  -0.594
10 10 10
