22
12
    1LIG     B1    1  -0.004   2.841   0.779
    1LIG     B2    2   0.227   2.902   0.611
    1LIG     B3    3   0.059   3.056   0.701
    1LIG     B4    4  -0.094   3.256   0.762
    1LIG     B5    5  -0.132   3.054   0.821
    1LIG     B6    6  -0.052   2.685   0.877
    1LIG     B7    7  -0.096   2.539   1.025
    1LIG     B8    8  -0.111   2.361   1.182
    1LIG     B9    9   0.334   2.738   0.659
    1LIG    B10   10   0.459   2.569   0.585
    1LIG    B11   11   0.389   2.612   0.792
    1LIG    B12   12   0.296   2.655   1.073
10 10 10
