2s
14
    1LIG     B1    1   2.863   0.907   3.180
    1LIG     B2    2   2.673   0.824   3.141
    1LIG     B3    3   2.463   0.765   3.109
    1LIG     B4    4   2.316   1.010   3.120
    1LIG     B5    5   2.360   1.249   3.187
    1LIG     B6    6   2.163   0.796   3.048
    1LIG     B7    7   2.031   1.000   3.059
    1LIG     B8    8   2.130   1.315   3.136
    1LIG     B9    9   1.954   1.215   3.083
    1LIG    B10   10   1.708   1.093   3.200
    1LIG    B11   11   1.504   1.081   3.052
    1LIG    B12   12   1.669   1.223   2.939
    1LIG    B13   13   2.517   1.335   3.044
    1LIG    B14   14   2.354   1.446   2.916
10 10 10
