10
8
    1LIG     B1    1   0.300   1.039   2.494
    1LIG     B2    2   0.148   0.947   2.678
    1LIG     B3    3   0.031   1.103   2.442
    1LIG     B4    4  -0.238   1.176   2.409
    1LIG     B5    5  -0.101   0.977   2.757
    1LIG     B6    6   0.580   1.216   2.425
    1LIG     B7    7   0.522   0.945   2.339
    1LIG     B8    8   0.725   1.069   2.287
10 10 10
