336
11
    1LIG     B1    1   2.099  -0.070  -1.116
    1LIG     B2    2   1.946  -0.012  -1.016
    1LIG     B3    3   1.839   0.157  -0.897
    1LIG     B4    4   1.928  -0.221  -1.106
    1LIG     B5    5   2.330  -0.058  -1.073
    1LIG     B6    6   2.433  -0.099  -0.867
    1LIG     B7    7   2.568  -0.037  -1.048
    1LIG     B8    8   2.493   0.002  -1.325
    1LIG     B9    9   2.663   0.123  -1.290
    1LIG    B10   10   2.788   0.059  -1.134
    1LIG    B11   11   2.754  -0.032  -0.781
10 10 10
