2p
14
    1LIG     B1    1   2.864   0.901   3.186
    1LIG     B2    2   2.672   0.822   3.145
    1LIG     B3    3   2.463   0.765   3.109
    1LIG     B4    4   2.163   0.797   3.048
    1LIG     B5    5   2.316   1.010   3.120
    1LIG     B6    6   2.031   1.000   3.059
    1LIG     B7    7   2.130   1.315   3.136
    1LIG     B8    8   1.954   1.215   3.083
    1LIG     B9    9   1.708   1.093   3.200
    1LIG    B10   10   1.504   1.081   3.052
    1LIG    B11   11   1.669   1.222   2.939
    1LIG    B12   12   2.362   1.246   3.187
    1LIG    B13   13   2.540   1.286   3.011
    1LIG    B14   14   2.767   1.465   3.157
10 10 10
