; This file was generated using the following command:
; /remote/au011/walter/programs/uvenv-ml/bin/ff_inter -f mapped.xtc -s mapped.tpr -i ../mapping.itp -temperature 298 -interactions comments -dists -plots -constraints 10000000 -max-dihedral 3
; 

; Please cite the following papers:
; {Brasnett, C; Fidlin, M; Duve, T; Thallmair, S; Marrink, S J; Grünewald, F;   {ChemRxiv  {2026;  {10.26434/chemrxiv.15001072/v1
; Kroon, P C; Grunewald, F; Barnoud, J; van Tilburg, M; Souza, P C; Wassenaar, T A; Marrink, S J;  elife 2024; 10.7554/elife.90627.2

[ moleculetype ]
ligand 1

[ atoms ]
 1 TC5  1 LIG B1   1 0.0 36.0
 2 SX3  1 LIG B2   2 0.0 54.0
 3 SX3  1 LIG B3   3 0.0 54.0
 4 TC5  1 LIG B4   4 0.0 36.0
 5 TC5  1 LIG B5   5 0.0 36.0
 6 TC5  1 LIG B6   6 0.0 36.0
 7 TP1a 1 LIG B7   7 0.0 36.0
 8 TN1  1 LIG B8   8 0.0 36.0
 9 TN6d 1 LIG B9   9 0.0 36.0
10 TN4a 1 LIG B10 10 0.0 36.0
11 SC2  1 LIG B11 11 0.0 54.0

[ bonds ]
  1   4  1 0.221    25000.000 ; bond3 (94317.326)
  6   7  1 0.31     25000.000 ; bond6 (25755.833)
  6  10  1 0.248    25000.000 ; bond1 (41239.741)
  7   9  1 0.402    25000.000 ; bond4 (107174.492)
  7  11  1 0.367     8333.865 ; bond7
  8  10  1 0.38     25000.000 ; bond5 (100503.735)
 10  11  1 0.265    25000.000 ; bond2 (43121.633)

[ constraints ]
 1  2 1 0.239 100000
 1  3 1 0.239 100000
 2  3 1 0.280 100000
 4  5 1 0.224 100000
 4  6 1 0.194 100000
 5  6 1 0.223 100000
 7  8 1 0.266 100000
 7 10 1 0.288 100000
 8  9 1 0.293 100000
 9 10 1 0.268 100000

[ angles ]
  2   1   4  2 144.993    146.464 ; angle1
  3   1   4  2 145.034    146.764 ; angle2
  1   4   5  2 146.324    156.772 ; angle3
  1   4   6  2 149.665    188.968 ; angle4
  4   6  10  2 136.799     40.674 ; angle5
  5   6  10  2 140.500     30.136 ; angle6
  6  10   9  2 135.854     99.366 ; angle7
  6  10  11  2  94.280     48.472 ; angle8
  9  10  11  2 124.353     70.721 ; angle9

[ dihedrals ]
; dihedral1
 5  6 10  9 11 1.0 45.417 -6.666 -28.399 2.471 29.761 ; dihedral1

; dihedral2
 3  1  4  6 11 1.0 352.27 35.182 -844.442 -28.665 678.226 ; dihedral2

; dihedral3
 4  6 10 11 11 1.0 9.172 2.47 -1.675 0.936 4.723 ; dihedral3

[ exclusions ]
 1  2  3  4  5  6  7  8  9 10 11 
 2  3  4  5  6  7 10 
 3  4  5  6  7 10 
 4  5  6  7  8  9 10 11 
 5  6  7  8  9 10 11 
 6  7  8  9 10 11 
 7  8  9 10 11 
 8  9 10 11 
 9 10 11 
10 11 
