CAT-17a
11
    1LIG     B1    1   1.513   0.212  -0.205
    1LIG     B2    2   1.423   0.412  -0.301
    1LIG     B3    3   1.500   0.378  -0.034
    1LIG     B4    4   1.560   0.011  -0.249
    1LIG     B5    5   1.646  -0.131  -0.399
    1LIG     B6    6   1.547  -0.178  -0.205
    1LIG     B7    7   1.285  -0.294  -0.111
    1LIG     B8    8   1.179  -0.259   0.131
    1LIG     B9    9   1.442  -0.239   0.259
    1LIG    B10   10   1.544  -0.288   0.015
    1LIG    B11   11   1.566  -0.539  -0.067
10 10 10
