; This file was generated using the following command:
; /remote/au011/walter/programs/uvenv-ml/bin/ff_inter -f mapped.xtc -s mapped.tpr -i ../mapping.itp -temperature 298 -interactions comments -dists -plots -constraints 10000000 -max-dihedral 3
; 

; Please cite the following papers:
; Kroon, P C; Grunewald, F; Barnoud, J; van Tilburg, M; Souza, P C; Wassenaar, T A; Marrink, S J;  elife 2024; 10.7554/elife.90627.2
; {Brasnett, C; Fidlin, M; Duve, T; Thallmair, S; Marrink, S J; Grünewald, F;   {ChemRxiv  {2026;  {10.26434/chemrxiv.15001072/v1

[ moleculetype ]
ligand 1

[ atoms ]
 1 TN6d 1 LIG B1   1 0.0 48.0
 2 TN3  1 LIG B2   2 0.0 48.0
 3 TC5  1 LIG B3   3 0.0 48.0
 4 TC5  1 LIG B4   4 0.0 36.0
 5 TC5  1 LIG B5   5 0.0  0.0
 6 TC5  1 LIG B6   6 0.0 36.0
 7 TC5  1 LIG B7   7 0.0 36.0
 8 TC5  1 LIG B8   8 0.0 36.0
 9 SP3  1 LIG B9   9 0.0 54.0
10 TC3  1 LIG B10 10 0.0 36.0

[ bonds ]
  1   4  1 0.501    25000.000 ; bond6 (92038.429)
  2   3  1 0.404    25000.000 ; bond5 (149775.345)
  3   6  1 0.221    25000.000 ; bond4 (77508.503)
  7   9  1 0.348    25000.000 ; bond2 (54182.318)
  8   9  1 0.348    25000.000 ; bond3 (44188.4)
  9  10  1 0.267     14052.92 ; bond1

[ constraints ]
 1  2 1 0.330 100000
 1  3 1 0.441 100000
 2  4 1 0.330 100000
 3  4 1 0.217 100000
 6  7 1 0.216 100000
 6  8 1 0.216 100000
 7  8 1 0.290 100000

[ angles ]
  1   3   6  2 126.984     75.541 ; angle7
  4   3   6  2 132.965     90.015 ; angle1
  3   6   7  2 134.731     95.507 ; angle2
  3   6   8  2 134.548     94.907 ; angle3
  6   7   9  2 111.726     55.856 ; angle4
  7   9  10  2  92.778     32.309 ; angle5
  8   9  10  2  94.156      35.13 ; angle6

[ dihedrals ]
; dihedral1
 6  7  9 10 11 1.0 2.341 3.482 20.621 -3.557 -15.207 ; dihedral1

; dihedral2
 4  3  6  7 11 1.0 60.705 5.743 -162.758 -1.553 134.614 ; dihedral2

[ virtual_sites3 ]
 5  3  1  2 4 0.314848 0.109128 -0.020382

[ exclusions ]
 1  2  3  4  5  6  7  8 
 2  3  4  5  6  7  8 
 3  4  5  6  7  8  9 
 4  5  6  7  8  9 
 5  6  7  8  9 
 6  7  8  9 10 
 7  8  9 10 
 8  9 10 
 9 10 
