18
10
    1LIG     B1    1   3.267   4.318   3.665
    1LIG     B2    2   3.548   4.233   3.515
    1LIG     B3    3   3.366   3.888   3.677
    1LIG     B4    4   3.549   3.907   3.563
    1LIG     B5    5   3.356   4.062   3.658
    1LIG     B6    6   3.255   3.737   3.768
    1LIG     B7    7   3.189   3.537   3.721
    1LIG     B8    8   3.148   3.706   3.953
    1LIG     B9    9   2.979   3.410   3.948
    1LIG    B10   10   3.120   3.291   4.144
10 10 10
