231
10
    1LIG     B1    1   2.099  -0.071  -1.111
    1LIG     B2    2   1.930  -0.225  -1.096
    1LIG     B3    3   1.947  -0.014  -1.011
    1LIG     B4    4   1.837   0.156  -0.895
    1LIG     B5    5   2.332  -0.057  -1.078
    1LIG     B6    6   2.448  -0.100  -0.878
    1LIG     B7    7   2.571  -0.036  -1.067
    1LIG     B8    8   2.573   0.050  -1.332
    1LIG     B9    9   2.784   0.056  -1.159
    1LIG    B10   10   2.784  -0.002  -0.803
10 10 10
