49
11
    1LIG     B1    1   0.317  -4.951   0.666
    1LIG     B2    2   0.118  -5.072   0.665
    1LIG     B3    3   0.049  -4.761   0.522
    1LIG     B4    4  -0.074  -5.024   0.614
    1LIG     B5    5  -0.229  -5.219   0.658
    1LIG     B6    6  -0.312  -4.947   0.538
    1LIG     B7    7  -0.033  -4.615   0.711
    1LIG     B8    8  -0.660  -4.523   0.802
    1LIG     B9    9  -0.640  -4.399   0.563
    1LIG    B10   10  -0.370  -4.480   0.599
    1LIG    B11   11  -0.403  -4.610   0.867
10 10 10
