CHEMBL3402754_40
13
    1LIG     B1    1   1.758   2.952   5.262
    1LIG     B2    2   1.737   2.693   5.305
    1LIG     B3    3   1.826   2.844   5.452
    1LIG     B4    4   1.912   2.928   5.638
    1LIG     B5    5   1.956   2.721   5.775
    1LIG     B6    6   2.032   2.919   5.937
    1LIG     B7    7   1.977   3.135   5.829
    1LIG     B8    8   2.172   3.206   5.775
    1LIG     B9    9   2.381   3.244   5.836
    1LIG    B10   10   2.287   3.274   5.638
    1LIG    B11   11   2.221   3.313   5.332
    1LIG    B12   12   2.433   3.388   5.382
    1LIG    B13   13   2.366   3.402   5.118
10 10 10
