; This file was generated using the following command:
; /remote/au011/walter/programs/uvenv-ml/bin/ff_inter -f mapped.xtc -s mapped.tpr -i ../mapping.itp -temperature 298 -interactions comments -dists -plots -constraints 10000000 -max-dihedral 3
; 

; Please cite the following papers:
; {Brasnett, C; Fidlin, M; Duve, T; Thallmair, S; Marrink, S J; Grünewald, F;   {ChemRxiv  {2026;  {10.26434/chemrxiv.15001072/v1
; Kroon, P C; Grunewald, F; Barnoud, J; van Tilburg, M; Souza, P C; Wassenaar, T A; Marrink, S J;  elife 2024; 10.7554/elife.90627.2

[ moleculetype ]
ligand 1

[ atoms ]
 1 SX4  1 LIG B1   1 0.0 36.0
 2 SX4  1 LIG B2   2 0.0 36.0
 3 TC5  1 LIG B3   3 0.0 36.0
 4 TN5a 1 LIG B4   4 0.0 36.0
 5 TC5  1 LIG B5   5 0.0 36.0
 6 TN6a 1 LIG B6   6 0.0 36.0
 7 TN2  1 LIG B7   7 0.0 36.0
 8 TC5  1 LIG B8   8 0.0 36.0
 9 TC5  1 LIG B9   9 0.0 36.0
10 TC5  1 LIG B10 10 0.0 36.0
11 TN6a 1 LIG B11 11 0.0 36.0
12 TN6a 1 LIG B12 12 0.0 36.0
13 SC4  1 LIG B13 13 0.0 54.0

[ bonds ]
  3   4  1 0.228    25000.000 ; bond2 (133408.11)
  3   5  1 0.369    25000.000 ; bond5 (63344.767)
  4   6  1 0.312    25000.000 ; bond3 (176980.065)
  5   7  1 0.425    25000.000 ; bond4 (76592.523)
  7   8  1 0.22     25000.000 ; bond1 (113012.254)
 10  11  1 0.334    25000.000 ; bond6 (105681.132)
 10  12  1 0.334    25000.000 ; bond7 (93193.347)

[ constraints ]
 1  2 1 0.263 100000
 1  3 1 0.229 100000
 2  3 1 0.229 100000
 4  5 1 0.252 100000
 4  7 1 0.289 100000
 5  6 1 0.267 100000
 6  7 1 0.248 100000
 8  9 1 0.221 100000
 8 10 1 0.191 100000
 9 10 1 0.221 100000
11 12 1 0.230 100000
11 13 1 0.273 100000
12 13 1 0.272 100000

[ angles ]
  1   3   4  2 141.990     59.885 ; angle2
  2   3   4  2 148.887     78.937 ; angle1
  3   4   7  2 158.046     344.86 ; angle3
  4   7   8  2 101.630     50.244 ; angle4
  6   7   8  2 104.592     51.469 ; angle5
  7   8   9  2 146.487    158.121 ; angle6
  7   8  10  2 149.499    187.112 ; angle7
  8  10  12  2 169.870   1558.194 ; angle9
  9  10  12  2 127.298     76.171 ; angle8
 10  12  13  2 131.022     84.683 ; angle10

[ dihedrals ]
; dihedral1
 4  7  8  9 11 1.0 11.822 -4.686 -1.528 4.692 18.086 ; dihedral1

; dihedral2
 1  3  4  5 11 1.0 28.291 -9.873 -30.412 16.293 16.473 ; dihedral2

; dihedral3
 8 10 11 12 11 1.0 27.504 -10.634 28.176 23.053 -40.758 ; dihedral3

[ exclusions ]
 1  2  3  4  5  6  7  8 
 2  3  4  5  6  7  8 
 3  4  5  6  7  8  9 10 
 4  5  6  7  8  9 10 
 5  6  7  8  9 10 
 6  7  8  9 10 11 12 
 7  8  9 10 11 12 13 
 8  9 10 11 12 13 
 9 10 11 12 13 
10 11 12 13 
11 12 13 
12 13 
