; This file was generated using the following command:
; /remote/au011/walter/programs/uvenv-ml/bin/ff_inter -f mapped.xtc -s mapped.tpr -i ../mapping.itp -temperature 298 -interactions comments -dists -plots -constraints 10000000 -max-dihedral 3
; 

; Please cite the following papers:
; {Brasnett, C; Fidlin, M; Duve, T; Thallmair, S; Marrink, S J; Grünewald, F;   {ChemRxiv  {2026;  {10.26434/chemrxiv.15001072/v1
; Kroon, P C; Grunewald, F; Barnoud, J; van Tilburg, M; Souza, P C; Wassenaar, T A; Marrink, S J;  elife 2024; 10.7554/elife.90627.2

[ moleculetype ]
ligand 1

[ atoms ]
 1 TN4a 1 LIG B1   1 0.0 48.0
 2 TN4d 1 LIG B2   2 0.0 48.0
 3 SN6  1 LIG B3   3 0.0 54.0
 4 TC5  1 LIG B4   4 0.0 36.0
 5 TC5  1 LIG B5   5 0.0 36.0
 6 TN4a 1 LIG B6   6 0.0  0.0
 7 TN5d 1 LIG B7   7 0.0 48.0
 8 TN4a 1 LIG B8   8 0.0 36.0
 9 TN2a 1 LIG B9   9 0.0 36.0
10 SC3  1 LIG B10 10 0.0 54.0
11 SC3  1 LIG B11 11 0.0 54.0

[ bonds ]
  1   7  1 0.417    25000.000 ; bond7 (144378.642)
  1   9  1 0.218    25000.000 ; bond3 (61354.012)
  2   4  1 0.326    25000.000 ; bond4 (84306.96)
  2   5  1 0.327    25000.000 ; bond5 (74510.516)
  2   8  1 0.441    25000.000 ; bond6 (78522.023)
  9  10  1 0.22     25000.000 ; bond1 (77005.311)
 10  11  1 0.23     25000.000 ; bond2 (156979.384)

[ constraints ]
 1  2 1 0.292 100000
 1  8 1 0.252 100000
 2  7 1 0.495 100000
 3  4 1 0.281 100000
 3  5 1 0.262 100000
 4  5 1 0.287 100000
 7  8 1 0.215 100000

[ angles ]
  2   1   9  2 136.709    102.516 ; angle1
  8   1   9  2 108.086     53.343 ; angle2
  1   2   4  2 100.500     11.737 ; angle6
  4   2   7  2 170.065    280.822 ; angle7
  2   5   3  2 120.046     64.329 ; angle3
  1   9  10  2 149.445    186.515 ; angle4
  9  10  11  9   0.511   2000.000 ; angle5 (185.768 -> linear 0.220 & 0.230)

[ dihedrals ]
; dihedral1
 1  2  4  3 11 1.0 12.688 -3.315 -31.853 3.606 26.574 ; dihedral1

[ virtual_sites3 ]
 6  2  7  1 4 0.448509 0.116344 0.017639

[ exclusions ]
 1  2  3  4  5  6  7  8  9 10 11 
 2  3  4  5  6  7  8  9 10 11 
 3  4  5  6 
 4  5  6  7  8  9 
 5  6  7  8  9 
 6  7  8  9 10 11 
 7  8  9 10 
 8  9 10 11 
 9 10 11 
10 11 
