CHEMBL1088740
10
    1LIG     B1    1   1.188  -0.071  -0.053
    1LIG     B2    2   1.281  -0.284   0.092
    1LIG     B3    3   1.058  -0.353  -0.026
    1LIG     B4    4   1.194  -0.588   0.184
    1LIG     B5    5   1.437  -0.459   0.158
    1LIG     B6    6   1.480  -0.349   0.414
    1LIG     B7    7   1.532  -0.587   0.366
    1LIG     B8    8   1.276  -0.788   0.201
    1LIG     B9    9   1.238  -0.980   0.306
    1LIG    B10   10   1.334  -0.962   0.075
10 10 10
