; This file was generated using the following command:
; /remote/au011/walter/programs/uvenv-ml/bin/ff_inter -f mapped.xtc -s mapped.tpr -i ../mapping.itp -temperature 298 -interactions comments -dists -plots -constraints 10000000 -max-dihedral 3
; 

; Please cite the following papers:
; {Brasnett, C; Fidlin, M; Duve, T; Thallmair, S; Marrink, S J; Grünewald, F;   {ChemRxiv  {2026;  {10.26434/chemrxiv.15001072/v1
; Kroon, P C; Grunewald, F; Barnoud, J; van Tilburg, M; Souza, P C; Wassenaar, T A; Marrink, S J;  elife 2024; 10.7554/elife.90627.2

[ moleculetype ]
ligand 1

[ atoms ]
 1 TC5  1 LIG B1   1 0.0 36.0
 2 TC5  1 LIG B2   2 0.0 36.0
 3 TC5  1 LIG B3   3 0.0 36.0
 4 TC5  1 LIG B4   4 0.0 36.0
 5 SX4  1 LIG B5   5 0.0 54.0
 6 TC5  1 LIG B6   6 0.0 36.0
 7 TN3d  1 LIG B7   7 0.0 36.0
 8 TP2a 1 LIG B8   8 0.0 48.0
 9 SN6d 1 LIG B9   9 0.0 54.0
10 TP2a 1 LIG B10 10 0.0 48.0
11 TN3  1 LIG B11 11 0.0  0.0
12 SC3  1 LIG B12 12 0.0 66.0

[ bonds ]
  1   9  1 0.261    18180.958 ; bond2
  4   7  1 0.224    25000.000 ; bond4 (27445.131)
  7   8  1 0.23     25000.000 ; bond3 (26335.903)
  9  10  1 0.234    21396.993 ; bond1

[ constraints ]
 1  2 1 0.224 100000
 1  3 1 0.222 100000
 2  3 1 0.252 100000
 4  5 1 0.229 100000
 4  6 1 0.222 100000
 5  6 1 0.257 100000
 8 10 1 0.298 100000
 8 12 1 0.342 100000
10 12 1 0.371 100000

[ angles ]
  2   1   9  2 136.424    101.444 ; angle1
  3   1   9  2 138.998    111.981 ; angle2
  5   4   7  2 143.587    136.797 ; angle3
  6   4   7  2 145.518    150.386 ; angle4
  4   7   8  2 119.251     15.443 ; angle5
  7   8  10  2  82.158     49.116 ; angle8
  7   8  12  2  92.184     48.272 ; angle7
  1   9  10  2  84.748     48.609 ; angle6
  8  10   9  2 152.998    233.836 ; angle9
  9  10  12  2 103.460     50.963 ; angle10

[ dihedrals ]
; dihedral1
 2  1  9 10 11 1.0 15.289 18.538 -7.357 -23.774 6.759 ; dihedral1

; dihedral2
 5  4  7  8 11 1.0 25.807 8.667 -7.26 -14.925 -2.506 ; dihedral2

[ virtual_sites3 ]
11 10 12  8 4 0.434380 0.211509 0.982681

[ exclusions ]
 1  2  3  8  9 10 11 12 
 2  3  9 10 
 3  9 10 11 
 4  5  6  7  8 10 11 12 
 5  6  7  8 10 11 
 6  7  8 10 11 
 7  8  9 10 11 12 
 8  9 10 11 12 
 9 10 11 12 
10 11 12 
11 12 
