1a
12
    1LIG     B1    1   1.988  -1.426   2.478
    1LIG     B2    2   2.203  -1.448   2.421
    1LIG     B3    3   2.111  -1.269   2.573
    1LIG     B4    4   1.330  -1.065   2.154
    1LIG     B5    5   1.199  -0.996   2.328
    1LIG     B6    6   1.181  -1.222   2.205
    1LIG     B7    7   1.519  -0.998   2.044
    1LIG     B8    8   1.633  -1.206   2.016
    1LIG     B9    9   1.716  -1.549   2.369
    1LIG    B10   10   1.697  -1.329   2.280
    1LIG    B11   11   1.820  -1.202   2.147
    1LIG    B12   12   1.963  -1.292   2.024
10 10 10
