1h1s
12
    1LIG     B1    1  -0.051   2.682   0.877
    1LIG     B2    2  -0.004   2.841   0.779
    1LIG     B3    3   0.232   2.908   0.621
    1LIG     B4    4   0.059   3.056   0.701
    1LIG     B5    5  -0.092   3.256   0.758
    1LIG     B6    6  -0.132   3.054   0.821
    1LIG     B7    7   0.343   2.734   0.656
    1LIG     B8    8   0.453   2.584   0.552
    1LIG     B9    9   0.381   2.613   0.829
    1LIG    B10   10   0.488   2.320   0.808
    1LIG    B11   11  -0.095   2.537   1.026
    1LIG    B12   12  -0.112   2.362   1.182
10 10 10
