3
8
    1LIG     B1    1  -0.241   1.177   2.408
    1LIG     B2    2   0.029   1.103   2.442
    1LIG     B3    3  -0.101   0.977   2.759
    1LIG     B4    4   0.147   0.947   2.677
    1LIG     B5    5   0.301   1.038   2.494
    1LIG     B6    6   0.497   1.084   2.413
    1LIG     B7    7   0.634   0.959   2.286
    1LIG     B8    8   0.684   1.196   2.361
10 10 10
