26
12
    1LIG     B1    1  -0.004   2.841   0.779
    1LIG     B2    2   0.229   2.907   0.617
    1LIG     B3    3   0.059   3.056   0.701
    1LIG     B4    4  -0.092   3.256   0.758
    1LIG     B5    5  -0.132   3.054   0.821
    1LIG     B6    6   0.463   2.544   0.659
    1LIG     B7    7   0.657   2.376   0.600
    1LIG     B8    8   0.424   2.690   0.509
    1LIG     B9    9   0.335   2.664   0.780
    1LIG    B10   10  -0.051   2.682   0.877
    1LIG    B11   11  -0.095   2.537   1.026
    1LIG    B12   12  -0.112   2.362   1.182
10 10 10
