; This file was generated using the following command:
; /remote/au011/walter/programs/uvenv-ml/bin/ff_inter -f mapped.xtc -s mapped.tpr -i ../mapping.itp -temperature 298 -interactions comments -dists -plots -constraints 10000000 -max-dihedral 3
; 

; Please cite the following papers:
; Kroon, P C; Grunewald, F; Barnoud, J; van Tilburg, M; Souza, P C; Wassenaar, T A; Marrink, S J;  elife 2024; 10.7554/elife.90627.2
; {Brasnett, C; Fidlin, M; Duve, T; Thallmair, S; Marrink, S J; Grünewald, F;   {ChemRxiv  {2026;  {10.26434/chemrxiv.15001072/v1

[ moleculetype ]
ligand 1

[ atoms ]
1 SC4 1 LIG B1 1 0.0 54.0
2 TC5 1 LIG B2 2 0.0 36.0
3 TC5 1 LIG B3 3 0.0 36.0
4 TC2 1 LIG B4 4 0.0 36.0

[ bonds ]
  2   4  1 0.351     8321.893 ; bond1
  3   4  1 0.354     8448.416 ; bond2

[ constraints ]
1 2 1 0.313 100000
1 3 1 0.312 100000
2 3 1 0.288 100000

[ dihedrals ]
; dihedral1
1 2 3 4 11 1.0 54.929 43.482 -33.621 -3.075 22.368 ; dihedral1

[ exclusions ]
1 2 3 4 
2 3 4 
3 4 
