CAT-4l
13
    1LIG     B1    1   1.571   0.185  -0.153
    1LIG     B2    2   1.534   0.410  -0.256
    1LIG     B3    3   1.552   0.329  -0.062
    1LIG     B4    4   1.581  -0.012  -0.246
    1LIG     B5    5   1.640  -0.163  -0.401
    1LIG     B6    6   1.550  -0.199  -0.200
    1LIG     B7    7   1.285  -0.300  -0.108
    1LIG     B8    8   1.177  -0.232   0.124
    1LIG     B9    9   1.438  -0.235   0.261
    1LIG    B10   10   1.541  -0.300   0.021
    1LIG    B11   11   1.523  -0.501  -0.113
    1LIG    B12   12   1.461  -0.697  -0.201
    1LIG    B13   13   1.677  -0.659  -0.076
10 10 10
