6b
13
    1LIG     B1    1   1.988  -1.426   2.478
    1LIG     B2    2   2.111  -1.269   2.573
    1LIG     B3    3   2.203  -1.448   2.421
    1LIG     B4    4   1.716  -1.549   2.369
    1LIG     B5    5   1.697  -1.329   2.280
    1LIG     B6    6   1.820  -1.202   2.147
    1LIG     B7    7   1.963  -1.292   2.024
    1LIG     B8    8   1.635  -1.207   2.012
    1LIG     B9    9   1.509  -1.013   2.048
    1LIG    B10   10   1.354  -0.942   2.211
    1LIG    B11   11   1.277  -1.269   2.076
    1LIG    B12   12   1.112  -1.124   2.321
    1LIG    B13   13   1.216  -0.873   2.393
10 10 10
