56
11
    1LIG     B1    1   0.328  -4.940   0.664
    1LIG     B2    2   0.150  -5.174   0.702
    1LIG     B3    3   0.050  -4.772   0.525
    1LIG     B4    4  -0.067  -5.029   0.621
    1LIG     B5    5  -0.297  -4.949   0.558
    1LIG     B6    6  -0.232  -5.217   0.653
    1LIG     B7    7  -0.036  -4.621   0.709
    1LIG     B8    8  -0.666  -4.468   0.760
    1LIG     B9    9  -0.605  -4.361   0.529
    1LIG    B10   10  -0.350  -4.541   0.685
    1LIG    B11   11  -0.556  -4.619   0.954
10 10 10
