; This file was generated using the following command:
; /remote/au011/walter/programs/uvenv-ml/bin/ff_inter -f mapped.xtc -s mapped.tpr -i ../mapping.itp -temperature 298 -interactions comments -dists -plots -constraints 10000000 -max-dihedral 3
; 

; Please cite the following papers:
; {Brasnett, C; Fidlin, M; Duve, T; Thallmair, S; Marrink, S J; Grünewald, F;   {ChemRxiv  {2026;  {10.26434/chemrxiv.15001072/v1
; Kroon, P C; Grunewald, F; Barnoud, J; van Tilburg, M; Souza, P C; Wassenaar, T A; Marrink, S J;  elife 2024; 10.7554/elife.90627.2

[ moleculetype ]
ligand 1

[ atoms ]
 1 SQ5n  1 LIG B1   1 -1.0 72.0
 2 SN1   1 LIG B2   2  0.0  0.0
 3 TC4   1 LIG B3   3  0.0 66.0
 4 TC5   1 LIG B4   4  0.0  0.0
 5 TC5   1 LIG B5   5  0.0 48.0
 6 TC5   1 LIG B6   6  0.0 66.0
 7 SN4ah 1 LIG B7   7  0.0 54.0
 8 TX3   1 LIG B8   8  0.0 36.0
 9 TC4   1 LIG B9   9  0.0 36.0
10 SC5   1 LIG B10 10  0.0 54.0
11 TC4   1 LIG B11 11  0.0 36.0

[ bonds ]
  1   5  1 0.625    25000.000 ; bond5 (97418.184)
  3   7  1 0.255    25000.000 ; bond1 (62216.637)
  7  10  1 0.314    25000.000 ; bond2 (29349.127)
  8  10  1 0.333    25000.000 ; bond3 (145529.126)
  9  11  1 0.498    25000.000 ; bond4 (44376.207)

[ constraints ]
 1  3 1 0.353 100000
 1  6 1 0.625 100000
 3  5 1 0.391 100000
 3  6 1 0.542 100000
 5  6 1 0.292 100000
 8  9 1 0.262 100000
 8 11 1 0.269 100000
 9 10 1 0.350 100000
10 11 1 0.348 100000

[ angles ]
  1   3   7  2 105.148     50.252 ; angle5
  5   3   7  2 100.956     44.899 ; angle4
  3   7  10  2 157.739    335.881 ; angle1
  7  10   9  2 130.518     40.645 ; angle2
  7  10  11  2 135.083     45.206 ; angle3

[ dihedrals ]
; dihedral1
 1  3  7 10 11 1.0 14.636 12.405 -1.812 -12.257 3.388 ; dihedral1

; dihedral2
 3  7 10  9 11 1.0 33.447 16.193 -41.901 -23.283 30.092 ; dihedral2

[ virtual_sites3 ]
 2  1  3  6 4 -0.442757 0.544877 -0.102077
 4  6  5  3 4 -0.214283 0.539103 -0.156494

[ exclusions ]
 1  2  3  4  5  6  7 10 
 2  3  4  5  6  7 
 3  4  5  6  7  8  9 10 11 
 4  5  6  7 10 
 5  6  7 10 
 6  7 
 7  8  9 10 11 
 8  9 10 11 
 9 10 11 
10 11 
