; This file was generated using the following command:
; /remote/au011/walter/programs/uvenv-ml/bin/ff_inter -f mapped.xtc -s mapped.tpr -i ../mapping.itp -temperature 298 -interactions comments -dists -plots -constraints 10000000 -max-dihedral 3
; 

; Please cite the following papers:
; Kroon, P C; Grunewald, F; Barnoud, J; van Tilburg, M; Souza, P C; Wassenaar, T A; Marrink, S J;  elife 2024; 10.7554/elife.90627.2
; {Brasnett, C; Fidlin, M; Duve, T; Thallmair, S; Marrink, S J; Grünewald, F;   {ChemRxiv  {2026;  {10.26434/chemrxiv.15001072/v1

[ moleculetype ]
ligand 1

[ atoms ]
 1 SQ5n  1 LIG B1   1 -1.0 66.0
 2 TN6d  1 LIG B2   2  0.0  0.0
 3 TC4   1 LIG B3   3  0.0 60.0
 4 TC5   1 LIG B4   4  0.0  0.0
 5 SX3   1 LIG B5   5  0.0 78.0
 6 TC5   1 LIG B6   6  0.0 48.0
 7 SN4ah 1 LIG B7   7  0.0 54.0
 8 SC5   1 LIG B8   8  0.0 54.0
 9 TC4   1 LIG B9   9  0.0 36.0
10 TX3   1 LIG B10 10  0.0 36.0
11 TC4   1 LIG B11 11  0.0 36.0

[ bonds ]
  1   6  1 0.625    25000.000 ; bond5 (66369.319)
  3   7  1 0.255    25000.000 ; bond1 (67546.85)
  7   8  1 0.315    25000.000 ; bond2 (28678.474)
  8  10  1 0.334    25000.000 ; bond3 (142556.295)
  9  11  1 0.499    25000.000 ; bond4 (63062.456)

[ constraints ]
 1  3 1 0.361 100000
 1  5 1 0.628 100000
 3  5 1 0.562 100000
 3  6 1 0.396 100000
 5  6 1 0.301 100000
 8  9 1 0.350 100000
 8 11 1 0.348 100000
 9 10 1 0.262 100000
10 11 1 0.269 100000

[ angles ]
  1   3   7  2 107.031     52.725 ; angle5
  6   3   7  2 103.516     50.987 ; angle4
  3   7   8  2 144.001     17.714 ; angle1
  7   8   9  2 127.419      38.57 ; angle2
  7   8  11  2 136.182     48.501 ; angle3

[ dihedrals ]
; dihedral1
 1  3  7  8 11 1.0 8.328 7.379 3.588 -7.396 -0.159 ; dihedral1

; dihedral2
 3  7  8  9 11 1.0 19.938 6.245 -15.818 -10.796 13.464 ; dihedral2

[ virtual_sites3 ]
 2  1  3  5 4 -0.067583 0.390162 -0.033094
 4  5  6  3 4 -0.211606 0.554791 -0.150231

[ exclusions ]
 1  2  3  4  5  6  7  8 
 2  3  4  5  6  7  8 
 3  4  5  6  7  8  9 10 11 
 4  5  6  7  8 
 5  6  7 
 6  7  8 
 7  8  9 10 11 
 8  9 10 11 
 9 10 11 
10 11 
