53
11
    1LIG     B1    1   0.320  -4.952   0.666
    1LIG     B2    2   0.119  -5.074   0.665
    1LIG     B3    3   0.047  -4.764   0.522
    1LIG     B4    4  -0.072  -5.023   0.618
    1LIG     B5    5  -0.245  -5.225   0.654
    1LIG     B6    6  -0.302  -4.946   0.557
    1LIG     B7    7  -0.036  -4.619   0.709
    1LIG     B8    8  -0.350  -4.541   0.685
    1LIG     B9    9  -0.605  -4.361   0.529
    1LIG    B10   10  -0.666  -4.468   0.760
    1LIG    B11   11  -0.556  -4.619   0.954
10 10 10
