21
10
    1LIG     B1    1   3.251   4.320   3.669
    1LIG     B2    2   3.531   4.245   3.517
    1LIG     B3    3   3.347   4.065   3.663
    1LIG     B4    4   3.362   3.891   3.678
    1LIG     B5    5   3.613   3.921   3.512
    1LIG     B6    6   3.254   3.736   3.768
    1LIG     B7    7   3.187   3.535   3.724
    1LIG     B8    8   3.148   3.708   3.954
    1LIG     B9    9   3.029   3.416   4.033
    1LIG    B10   10   3.309   3.282   4.072
10 10 10
