25
10
    1LIG     B1    1   2.095  -0.078  -1.117
    1LIG     B2    2   1.899  -0.004  -1.014
    1LIG     B3    3   1.962  -0.215  -1.102
    1LIG     B4    4   2.331  -0.052  -1.077
    1LIG     B5    5   2.449  -0.115  -0.883
    1LIG     B6    6   2.571  -0.032  -1.066
    1LIG     B7    7   2.574   0.055  -1.330
    1LIG     B8    8   2.777   0.081  -1.159
    1LIG     B9    9   2.778  -0.150  -0.855
    1LIG    B10   10   2.795   0.090  -0.771
10 10 10
