; This file was generated using the following command:
; /remote/au011/walter/programs/uvenv-ml/bin/ff_inter -f mapped.xtc -s mapped.tpr -i ../mapping.itp -temperature 298 -interactions comments -dists -plots -constraints 10000000 -max-dihedral 3
; 

; Please cite the following papers:
; {Brasnett, C; Fidlin, M; Duve, T; Thallmair, S; Marrink, S J; Grünewald, F;   {ChemRxiv  {2026;  {10.26434/chemrxiv.15001072/v1
; Kroon, P C; Grunewald, F; Barnoud, J; van Tilburg, M; Souza, P C; Wassenaar, T A; Marrink, S J;  elife 2024; 10.7554/elife.90627.2

[ moleculetype ]
ligand 1

[ atoms ]
1 TN5d 1 LIG B1 1 0.0 66.0
2 TN4a 1 LIG B2 2 0.0  0.0
3 TN6a 1 LIG B3 3 0.0 66.0
4 SN6a 1 LIG B4 4 0.0  0.0
5 SC3  1 LIG B5 5 0.0 84.0
6 TC5  1 LIG B6 6 0.0 36.0
7 SX4  1 LIG B7 7 0.0 36.0
8 TC5  1 LIG B8 8 0.0 36.0

[ bonds ]
  5   6  1 0.348    25000.000 ; bond1 (54017.267)
  5   8  1 0.315    25000.000 ; bond2 (41166.201)

[ constraints ]
1 3 1 0.334 100000
1 5 1 0.567 100000
3 5 1 0.439 100000
6 7 1 0.247 100000
6 8 1 0.290 100000
7 8 1 0.244 100000

[ angles ]
  1   5   8  2 137.860    107.076 ; angle3
  3   5   6  2 153.634    244.398 ; angle2
  5   6   7  2 112.683     56.622 ; angle1

[ dihedrals ]
; dihedral1
1 5 6 7 11 1.0 20.265 29.136 -21.973 -32.981 31.835 ; dihedral1

[ virtual_sites3 ]
2 5 1 3 4 0.517051 -0.024791 -0.052868
4 5 1 3 4 -0.395674 0.910196 -0.152253

[ exclusions ]
1 2 3 4 5 6 8 
2 3 4 5 6 7 8 
3 4 5 6 7 8 
4 5 6 7 8 
5 6 7 8 
6 7 8 
7 8 
