9
8
    1LIG     B1    1  -0.241   1.178   2.408
    1LIG     B2    2   0.029   1.104   2.442
    1LIG     B3    3  -0.102   1.021   2.669
    1LIG     B4    4   0.146   0.948   2.677
    1LIG     B5    5   0.301   1.038   2.494
    1LIG     B6    6   0.582   1.218   2.425
    1LIG     B7    7   0.726   1.072   2.286
    1LIG     B8    8   0.523   0.946   2.339
10 10 10
