18658-1
12
    1LIG     B1    1   2.283   1.128   2.877
    1LIG     B2    2   2.335   1.109   3.113
    1LIG     B3    3   1.987   1.161   3.312
    1LIG     B4    4   2.147   0.958   3.158
    1LIG     B5    5   1.864   0.875   3.320
    1LIG     B6    6   2.142   0.720   3.098
    1LIG     B7    7   2.042   0.531   3.144
    1LIG     B8    8   2.461   0.727   2.927
    1LIG     B9    9   2.420   0.099   3.315
    1LIG    B10   10   2.464   0.320   3.177
    1LIG    B11   11   2.567   0.486   3.090
    1LIG    B12   12   2.227   0.409   3.039
10 10 10
