; This file was generated using the following command:
; /remote/au011/walter/programs/uvenv-ml/bin/ff_inter -f mapped.xtc -s mapped.tpr -i ../mapping.itp -temperature 298 -interactions comments -dists -plots -constraints 10000000 -max-dihedral 3
; 

; Please cite the following papers:
; Kroon, P C; Grunewald, F; Barnoud, J; van Tilburg, M; Souza, P C; Wassenaar, T A; Marrink, S J;  elife 2024; 10.7554/elife.90627.2
; {Brasnett, C; Fidlin, M; Duve, T; Thallmair, S; Marrink, S J; Grünewald, F;   {ChemRxiv  {2026;  {10.26434/chemrxiv.15001072/v1

[ moleculetype ]
ligand 1

[ atoms ]
 1 TC5  1 LIG B1   1 0.0 36.0
 2 TC5  1 LIG B2   2 0.0 36.0
 3 TC5  1 LIG B3   3 0.0 36.0
 4 TP1a 1 LIG B4   4 0.0 36.0
 5 TN1  1 LIG B5   5 0.0 36.0
 6 TN6d 1 LIG B6   6 0.0 36.0
 7 TQ3p 1 LIG B7   7 1.0 36.0
 8 TC5  1 LIG B8   8 0.0 36.0
 9 TC5  1 LIG B9   9 0.0 36.0
10 TC5  1 LIG B10 10 0.0 36.0
11 TC5  1 LIG B11 11 0.0 36.0
12 TC5  1 LIG B12 12 0.0 36.0
13 TC5  1 LIG B13 13 0.0 36.0

[ bonds ]
  1  11  1 0.222    25000.000 ; bond3 (87584.482)
  4   6  1 0.402    25000.000 ; bond4 (106479.378)
  4   8  1 0.313    22882.213 ; bond7
  4  13  1 0.311    25000.000 ; bond6 (25332.88)
  5   7  1 0.38     25000.000 ; bond5 (119216.526)
  7   8  1 0.248    25000.000 ; bond1 (42797.191)
  7  13  1 0.249    25000.000 ; bond2 (34115.586)

[ constraints ]
 1  2 1 0.224 100000
 1  3 1 0.225 100000
 2  3 1 0.252 100000
 4  5 1 0.265 100000
 4  7 1 0.287 100000
 5  6 1 0.295 100000
 6  7 1 0.269 100000
 8  9 1 0.224 100000
 8 10 1 0.224 100000
 9 10 1 0.252 100000
11 12 1 0.224 100000
11 13 1 0.195 100000
12 13 1 0.223 100000

[ angles ]
  2   1  11  2 146.196    155.727 ; angle1
  3   1  11  2 146.319    156.731 ; angle2
  6   7   8  2 135.782     99.109 ; angle3
  6   7  13  2 135.332     97.534 ; angle4
  8   7  13  2  78.799     50.092 ; angle5
  7   8   9  2 124.972     71.786 ; angle7
  7   8  10  2 140.500     28.757 ; angle6
  1  11  12  2 146.387    157.291 ; angle9
  1  11  13  2 149.675    189.081 ; angle8
  7  13  11  2 126.799     75.176 ; angle11
  7  13  12  2 169.114    172.156 ; angle10

[ dihedrals ]
; dihedral1
 6  7  8 10 11 1.0 57.04 -3.802 84.147 -13.433 -87.836 ; dihedral1

; dihedral2
 6  7 13 12 11 1.0 51.598 8.151 105.18 -21.232 -115.038 ; dihedral2

; dihedral3
 3  1 11 12 11 1.0 225.741 23.349 -475.281 -13.975 368.429 ; dihedral3

[ exclusions ]
 1  2  3  4  5  6  7  8 11 12 13 
 2  3  4  7 11 12 13 
 3  4  7 11 12 13 
 4  5  6  7  8  9 10 11 12 13 
 5  6  7  8  9 10 11 12 13 
 6  7  8  9 10 11 12 13 
 7  8  9 10 11 12 13 
 8  9 10 11 12 13 
 9 10 11 12 13 
10 11 12 13 
11 12 13 
12 13 
