CAT-4a
13
    1LIG     B1    1   1.560   0.192  -0.203
    1LIG     B2    2   1.519   0.397  -0.283
    1LIG     B3    3   1.538   0.343  -0.038
    1LIG     B4    4   1.285  -0.299  -0.109
    1LIG     B5    5   1.177  -0.229   0.122
    1LIG     B6    6   1.439  -0.234   0.260
    1LIG     B7    7   1.541  -0.300   0.020
    1LIG     B8    8   1.522  -0.500  -0.113
    1LIG     B9    9   1.460  -0.697  -0.200
    1LIG    B10   10   1.676  -0.659  -0.076
    1LIG    B11   11   1.581  -0.013  -0.249
    1LIG    B12   12   1.650  -0.166  -0.398
    1LIG    B13   13   1.551  -0.200  -0.200
10 10 10
