CHEMBL1085692
14
    1LIG     B1    1   1.189  -0.129  -0.026
    1LIG     B2    2   1.054  -0.352  -0.023
    1LIG     B3    3   1.284  -0.283   0.093
    1LIG     B4    4   1.194  -0.587   0.186
    1LIG     B5    5   1.438  -0.459   0.158
    1LIG     B6    6   1.532  -0.587   0.366
    1LIG     B7    7   1.484  -0.352   0.377
    1LIG     B8    8   1.276  -0.788   0.202
    1LIG     B9    9   1.238  -0.980   0.307
    1LIG    B10   10   1.334  -0.962   0.075
    1LIG    B11   11   1.436  -0.319   0.606
    1LIG    B12   12   1.578  -0.445   0.742
    1LIG    B13   13   1.519  -0.619   0.883
    1LIG    B14   14   1.545  -0.616   1.173
10 10 10
