[ B1 ]
26 61 27 29 62 28
[ B2 ]
26 61 24 23 25
[ B3 ]
23 30 29 62
[ B4 ]
22 60 15 54
[ B5 ]
14 53 31 63
[ B6 ]
13 51 52 12 49 50
[ B7 ]
32 11 48
[ B8 ]
16 21 59 17 55
[ B9 ]
17 55 18 56 19 57
[ B10 ]
19 57 20 58 21 59
[ B11 ]
9 45 10 46 47
[ B12 ]
7 8
[ B13 ]
6 43 44 5 41 42 39 40
[ B14 ]
2 64 3 36 37 38 1 33 34 35 4 39 40
