; This file was generated using the following command:
; /remote/au011/walter/programs/uvenv-ml/bin/ff_inter -f mapped.xtc -s mapped.tpr -i ../mapping.itp -temperature 298 -interactions comments -dists -plots -constraints 10000000 -max-dihedral 3
; 

; Please cite the following papers:
; {Brasnett, C; Fidlin, M; Duve, T; Thallmair, S; Marrink, S J; Grünewald, F;   {ChemRxiv  {2026;  {10.26434/chemrxiv.15001072/v1
; Kroon, P C; Grunewald, F; Barnoud, J; van Tilburg, M; Souza, P C; Wassenaar, T A; Marrink, S J;  elife 2024; 10.7554/elife.90627.2

[ moleculetype ]
ligand 1

[ atoms ]
 1 SN4ah 1 LIG B1   1 0.0 54.0
 2 SN4a  1 LIG B2   2 0.0 54.0
 3 TN4a  1 LIG B3   3 0.0 36.0
 4 SN6d  1 LIG B4   4 0.0 54.0
 5 TN4d  1 LIG B5   5 0.0 36.0
 6 TP1a  1 LIG B6   6 0.0 36.0
 7 SC5   1 LIG B7   7 0.0 54.0
 8 TN2a  1 LIG B8   8 0.0 36.0
 9 TC5   1 LIG B9   9 0.0 36.0
10 TC5   1 LIG B10 10 0.0 36.0

[ bonds ]
  1   3  1 0.317    25000.000 ; bond4 (96474.081)
  2   5  1 0.516    25000.000 ; bond6 (71366.865)
  3   4  1 0.335    25000.000 ; bond5 (128649.744)
  5   6  1 0.217    25000.000 ; bond3 (210466.492)
  6   7  1 0.256     7828.373 ; bond2
  8   9  1 0.245    25000.000 ; bond1 (49420.506)

[ constraints ]
 2  3 1 0.301 100000
 2  4 1 0.311 100000
 3  5 1 0.245 100000
 4  5 1 0.388 100000
 7  9 1 0.334 100000
 7 10 1 0.361 100000
 9 10 1 0.257 100000

[ angles ]
  1   3   2  2  90.610     48.207 ; angle1
  1   3   5  2 129.455     80.852 ; angle2
  3   5   6  2 139.687    115.161 ; angle3
  4   5   6  2  85.627     48.484 ; angle4
  5   6   7  2  93.883     48.424 ; angle5
  6   7   9  2 107.475     52.979 ; angle6
  6   7  10  2 127.641     76.873 ; angle7
  7   9   8  2  95.622     48.669 ; angle8
  8   9  10  2 167.027    956.454 ; angle9

[ dihedrals ]
; dihedral1
 5  6  7  9 11 1.0 3.694 -1.038 5.031 -0.131 -6.012 ; dihedral1

; dihedral2
 3  5  6  7 11 1.0 51.471 37.701 -21.322 -0.653 11.012 ; dihedral2

[ exclusions ]
 1  2  3  4  5  6  7 
 2  3  4  5  6  7 
 3  4  5  6  7 
 4  5  6  7 
 5  6  7  9 10 
 6  7  8  9 10 
 7  8  9 10 
 8  9 10 
 9 10 
