18631-1
10
    1LIG     B1    1   2.295   1.113   2.996
    1LIG     B2    2   1.983   1.160   3.314
    1LIG     B3    3   2.142   0.957   3.157
    1LIG     B4    4   1.863   0.873   3.325
    1LIG     B5    5   2.137   0.720   3.098
    1LIG     B6    6   2.043   0.529   3.148
    1LIG     B7    7   2.229   0.381   3.060
    1LIG     B8    8   2.440   0.745   2.926
    1LIG     B9    9   2.520   0.543   3.038
    1LIG    B10   10   2.565   0.335   3.183
10 10 10
