13
10
    1LIG     B1    1   2.599   2.103   0.710
    1LIG     B2    2   2.860   2.120   1.190
    1LIG     B3    3   2.910   2.246   1.313
    1LIG     B4    4   3.004   2.097   1.501
    1LIG     B5    5   2.941   1.843   1.347
    1LIG     B6    6   2.804   1.625   0.978
    1LIG     B7    7   2.856   1.441   0.913
    1LIG     B8    8   2.760   2.052   0.989
    1LIG     B9    9   2.780   1.844   0.974
    1LIG    B10   10   2.677   1.909   0.798
10 10 10
