19
13
    1LIG     B1    1  -0.853   0.858  -1.104
    1LIG     B2    2  -0.762   0.978  -0.817
    1LIG     B3    3  -0.754   1.032  -1.118
    1LIG     B4    4  -0.634   1.216  -1.087
    1LIG     B5    5  -0.744   1.117  -1.354
    1LIG     B6    6  -0.572   1.407  -1.256
    1LIG     B7    7  -0.354   1.436  -1.148
    1LIG     B8    8  -0.451   0.966  -0.810
    1LIG     B9    9  -0.575   1.203  -0.704
    1LIG    B10   10  -0.370   1.147  -0.729
    1LIG    B11   11  -0.208   1.328  -0.650
    1LIG    B12   12  -0.041   1.154  -0.721
    1LIG    B13   13   0.036   1.453  -0.593
10 10 10
