; This file was generated using the following command:
; /remote/au011/walter/programs/uvenv-ml/bin/ff_inter -f mapped.xtc -s mapped.tpr -i ../mapping.itp -temperature 298 -interactions comments -dists -plots -constraints 10000000 -max-dihedral 3
; 

; Please cite the following papers:
; {Brasnett, C; Fidlin, M; Duve, T; Thallmair, S; Marrink, S J; Grünewald, F;   {ChemRxiv  {2026;  {10.26434/chemrxiv.15001072/v1
; Kroon, P C; Grunewald, F; Barnoud, J; van Tilburg, M; Souza, P C; Wassenaar, T A; Marrink, S J;  elife 2024; 10.7554/elife.90627.2

[ moleculetype ]
ligand 1

[ atoms ]
 1 TN6  1 LIG B1   1 0.0 60.0
 2 TC4  1 LIG B2   2 0.0 60.0
 3 TC5  1 LIG B3   3 0.0  0.0
 4 TC5  1 LIG B4   4 0.0  0.0
 5 TC5  1 LIG B5   5 0.0 48.0
 6 TN6a 1 LIG B6   6 0.0 48.0
 7 TN2  1 LIG B7   7 0.0 36.0
 8 TC5  1 LIG B8   8 0.0 36.0
 9 TC5  1 LIG B9   9 0.0 36.0
10 TC5  1 LIG B10 10 0.0 36.0
11 TC5  1 LIG B11 11 0.0 36.0
12 TN6a 1 LIG B12 12 0.0 36.0
13 TN2  1 LIG B13 13 0.0 36.0

[ bonds ]
  1   6  1 0.62     25000.000 ; bond7 (52241.968)
  2   5  1 0.543      9218.01 ; bond6
  2   8  1 0.328    25000.000 ; bond1 (84840.238)
  2   9  1 0.327    25000.000 ; bond2 (73556.215)
  6   7  1 0.241    25000.000 ; bond3 (70520.941)
 10  11  1 0.26     25000.000 ; bond4 (87657.652)
 10  12  1 0.331    25000.000 ; bond5 (73107.647)

[ constraints ]
 1  2 1 0.324 100000
 1  5 1 0.376 100000
 2  6 1 0.644 100000
 5  6 1 0.352 100000
 8  9 1 0.287 100000
 8 10 1 0.214 100000
 9 10 1 0.214 100000
11 12 1 0.251 100000
11 13 1 0.280 100000
12 13 1 0.335 100000

[ angles ]
  1   2   9  2 106.311     16.397 ; angle1
  6   2   8  2  62.425     61.348 ; angle8
  2   6   7  2 109.500      4.956 ; angle6
  5   6   7  2  94.779     48.539 ; angle7
  2   9  10  2 110.440     54.897 ; angle2
  8  10  11  2 157.770     336.77 ; angle3
  9  10  11  2 110.636     55.038 ; angle4
 10  11  13  2 159.627    397.724 ; angle5

[ dihedrals ]
; dihedral1
 1  2  9  8 11 1.0 2.987 2.082 8.157 -0.745 -1.311 ; dihedral1

; dihedral2
 8 10 12 11 11 1.0 59.431 28.213 -6.45 12.559 -10.531 ; dihedral2

; dihedral3
 1  2  6  7 11 1.0 7.564 -5.411 -8.019 8.303 7.934 ; dihedral3

[ virtual_sites3 ]
 3  5  1  2 4 0.099835 0.394409 -0.081708
 4  6  1  2 4 0.034235 0.376779 -0.111180

[ exclusions ]
 1  2  3  4  5  6  7  8  9 10 
 2  3  4  5  6  7  8  9 10 11 12 
 3  4  5  6  7  8  9 10 
 4  5  6  7  8  9 10 
 5  6  7  8  9 
 6  7  8  9 
 8  9 10 11 12 13 
 9 10 11 12 13 
10 11 12 13 
11 12 13 
12 13 
