CAT-13i
11
    1LIG     B1    1   1.549   0.215  -0.206
    1LIG     B2    2   1.490   0.412  -0.295
    1LIG     B3    3   1.522   0.378  -0.033
    1LIG     B4    4   1.584   0.011  -0.245
    1LIG     B5    5   1.667  -0.141  -0.388
    1LIG     B6    6   1.567  -0.175  -0.192
    1LIG     B7    7   1.304  -0.295  -0.112
    1LIG     B8    8   1.177  -0.233   0.113
    1LIG     B9    9   1.430  -0.222   0.264
    1LIG    B10   10   1.551  -0.272   0.032
    1LIG    B11   11   1.556  -0.585   0.013
10 10 10
