; This file was generated using the following command:
; /remote/au011/walter/programs/uvenv-ml/bin/ff_inter -f mapped.xtc -s mapped.tpr -i ../mapping.itp -temperature 298 -interactions comments -dists -plots -constraints 10000000 -max-dihedral 3
; 

; Please cite the following papers:
; Kroon, P C; Grunewald, F; Barnoud, J; van Tilburg, M; Souza, P C; Wassenaar, T A; Marrink, S J;  elife 2024; 10.7554/elife.90627.2
; {Brasnett, C; Fidlin, M; Duve, T; Thallmair, S; Marrink, S J; Grünewald, F;   {ChemRxiv  {2026;  {10.26434/chemrxiv.15001072/v1

[ moleculetype ]
ligand 1

[ atoms ]
 1 TC5  1 LIG B1   1 0.0 36.0
 2 TC5  1 LIG B2   2 0.0 36.0
 3 SX3  1 LIG B3   3 0.0 54.0
 4 TC5  1 LIG B4   4 0.0 36.0
 5 TC5  1 LIG B5   5 0.0 36.0
 6 TC5  1 LIG B6   6 0.0 36.0
 7 TP1a 1 LIG B7   7 0.0 36.0
 8 TN1  1 LIG B8   8 0.0 36.0
 9 TN6d 1 LIG B9   9 0.0 36.0
10 TQ3p 1 LIG B10 10 1.0 36.0
11 C3   1 LIG B11 11 0.0 72.0

[ bonds ]
  6   7  1 0.309    25000.000 ; bond7 (30693.677)
  6  10  1 0.251    25000.000 ; bond2 (61349.943)
  7   9  1 0.402    25000.000 ; bond4 (110310.368)
  7  11  1 0.439    25000.000 ; bond6 (27875.921)
  8  10  1 0.38     25000.000 ; bond5 (118366.401)
 10  11  1 0.32      5685.395 ; bond1
  1   4  1 0.223        10000 ; bond3 (constraint)

[ constraints ]
 1  2 1 0.224 100000
 1  3 1 0.239 100000
 2  3 1 0.266 100000
 4  5 1 0.224 100000
 4  6 1 0.194 100000
 5  6 1 0.223 100000
 7  8 1 0.266 100000
 7 10 1 0.287 100000
 8  9 1 0.295 100000
 9 10 1 0.267 100000

[ angles ]
  2   1   4  2 146.104    154.983 ; angle1
  3   1   4  2 145.189    147.907 ; angle2
  1   4   5  2 146.428     157.63 ; angle4
  1   4   6  2 149.580    188.014 ; angle3
  4   6  10  2 142.500     17.609 ; angle6
  5   6  10  2 140.500     15.736 ; angle5
  6  10   9  2 135.113     96.786 ; angle8
  6  10  11  2  81.952     49.166 ; angle9
  9  10  11  2 140.390    118.584 ; angle7

[ dihedrals ]
; dihedral1
 5  6 10  9 11 1.0 40.944 -42.724 58.077 56.052 -30.819 ; dihedral1

; dihedral2
 2  1  4  6 11 1.0 293.928 12.353 -710.891 -5.776 571.637 ; dihedral2

[ exclusions ]
 1  2  3  4  5  6  7  8  9 10 11 
 2  3  4  5  6  7 10 
 3  4  5  6  7 10 
 4  5  6  7  8  9 10 11 
 5  6  7  8  9 10 11 
 6  7  8  9 10 11 
 7  8  9 10 11 
 8  9 10 11 
 9 10 11 
10 11 
