; This file was generated using the following command:
; /remote/au011/walter/programs/uvenv-ml/bin/ff_inter -f mapped.xtc -s mapped.tpr -i ../mapping.itp -temperature 298 -interactions comments -dists -plots -constraints 10000000 -max-dihedral 3
; 

; Please cite the following papers:
; {Brasnett, C; Fidlin, M; Duve, T; Thallmair, S; Marrink, S J; Grünewald, F;   {ChemRxiv  {2026;  {10.26434/chemrxiv.15001072/v1
; Kroon, P C; Grunewald, F; Barnoud, J; van Tilburg, M; Souza, P C; Wassenaar, T A; Marrink, S J;  elife 2024; 10.7554/elife.90627.2

[ moleculetype ]
ligand 1

[ atoms ]
1 SX3  1 LIG B1 1 0.0 84.0
2 TN5a 1 LIG B2 2 0.0  0.0
3 TN5a 1 LIG B3 3 0.0 66.0
4 SN3a 1 LIG B4 4 0.0  0.0
5 TN6d 1 LIG B5 5 0.0 66.0

[ constraints ]
1 3 1 0.309 100000
1 5 1 0.679 100000
3 5 1 0.515 100000

[ virtual_sites3 ]
2 1 3 5 4 0.012568 0.370877 -0.008885
4 5 3 1 4 0.125389 0.192784 0.017962

[ exclusions ]
1 2 3 4 5 
2 3 4 5 
3 4 5 
4 5 
