32
13
    1LIG     B1    1  -0.004   2.841   0.779
    1LIG     B2    2   0.232   2.908   0.620
    1LIG     B3    3   0.059   3.056   0.701
    1LIG     B4    4  -0.092   3.256   0.758
    1LIG     B5    5  -0.132   3.054   0.821
    1LIG     B6    6  -0.051   2.682   0.877
    1LIG     B7    7   0.343   2.734   0.654
    1LIG     B8    8   0.372   2.631   0.790
    1LIG     B9    9   0.332   2.633   1.008
    1LIG    B10   10   0.453   2.584   0.547
    1LIG    B11   11   0.485   2.316   0.805
    1LIG    B12   12  -0.095   2.537   1.026
    1LIG    B13   13  -0.112   2.362   1.182
10 10 10
