; This file was generated using the following command:
; /remote/au011/walter/programs/uvenv-ml/bin/ff_inter -f mapped.xtc -s mapped.tpr -i ../mapping.itp -temperature 298 -interactions comments -dists -plots -constraints 10000000 -max-dihedral 3
; 

; Please cite the following papers:
; Kroon, P C; Grunewald, F; Barnoud, J; van Tilburg, M; Souza, P C; Wassenaar, T A; Marrink, S J;  elife 2024; 10.7554/elife.90627.2
; {Brasnett, C; Fidlin, M; Duve, T; Thallmair, S; Marrink, S J; Grünewald, F;   {ChemRxiv  {2026;  {10.26434/chemrxiv.15001072/v1

[ moleculetype ]
ligand 1

[ atoms ]
1 SN3a 1 LIG B1 1 0.0  0.0
2 TN6d 1 LIG B2 2 0.0 54.0
3 TN3a 1 LIG B3 3 0.0 36.0
4 TN4a 1 LIG B4 4 0.0 54.0
5 TC5  1 LIG B5 5 0.0 54.0
6 TC5  1 LIG B6 6 0.0 36.0

[ bonds ]
  2   6  1 0.663    25000.000 ; bond3 (76120.679)
  3   4  1 0.313     2105.121 ; bond1
  3   6  1 0.381     1182.588 ; bond2

[ constraints ]
2 4 1 0.479 100000
2 5 1 0.507 100000
4 5 1 0.234 100000
4 6 1 0.234 100000
5 6 1 0.218 100000

[ angles ]
  3   4   5  2 140.889     36.872 ; angle1

[ virtual_sites3 ]
1 4 5 2 4 0.154305 0.598418 -0.021964

[ exclusions ]
1 2 3 4 5 6 
2 3 4 5 6 
3 4 5 6 
4 5 6 
5 6 
