20
10
    1LIG     B1    1   3.272   4.322   3.666
    1LIG     B2    2   3.550   4.233   3.515
    1LIG     B3    3   3.366   3.889   3.678
    1LIG     B4    4   3.564   3.903   3.554
    1LIG     B5    5   3.357   4.062   3.658
    1LIG     B6    6   3.254   3.738   3.768
    1LIG     B7    7   3.187   3.538   3.721
    1LIG     B8    8   3.149   3.705   3.954
    1LIG     B9    9   3.028   3.386   4.016
    1LIG    B10   10   3.312   3.284   4.074
10 10 10
