; This file was generated using the following command:
; /remote/au011/walter/programs/uvenv-ml/bin/ff_inter -f mapped.xtc -s mapped.tpr -i ../mapping.itp -temperature 298 -interactions comments -dists -plots -constraints 10000000 -max-dihedral 3
; 

; Please cite the following papers:
; Kroon, P C; Grunewald, F; Barnoud, J; van Tilburg, M; Souza, P C; Wassenaar, T A; Marrink, S J;  elife 2024; 10.7554/elife.90627.2
; {Brasnett, C; Fidlin, M; Duve, T; Thallmair, S; Marrink, S J; Grünewald, F;   {ChemRxiv  {2026;  {10.26434/chemrxiv.15001072/v1

[ moleculetype ]
ligand 1

[ atoms ]
 1 TN6d 1 LIG B1   1 0.0 48.0
 2 TN3  1 LIG B2   2 0.0 48.0
 3 TC5  1 LIG B3   3 0.0 48.0
 4 SX3  1 LIG B4   4 0.0 54.0
 5 TC5  1 LIG B5   5 0.0  0.0
 6 TC5  1 LIG B6   6 0.0 36.0
 7 TC5  1 LIG B7   7 0.0 36.0
 8 TC5  1 LIG B8   8 0.0 36.0
 9 P3   1 LIG B9   9 0.0 72.0
10 SC2  1 LIG B10 10 0.0 54.0

[ bonds ]
  1   4  1 0.51     25000.000 ; bond6 (89545.484)
  2   3  1 0.405    25000.000 ; bond5 (184766.578)
  3   6  1 0.221    25000.000 ; bond4 (106487.635)
  7   9  1 0.366    25000.000 ; bond2 (42903.726)
  8   9  1 0.34     25000.000 ; bond3 (42910.205)
  9  10  1 0.303    25000.000 ; bond1 (68997.803)

[ constraints ]
 1  2 1 0.328 100000
 1  3 1 0.443 100000
 2  4 1 0.332 100000
 3  4 1 0.234 100000
 6  7 1 0.216 100000
 6  8 1 0.216 100000
 7  8 1 0.289 100000

[ angles ]
  1   3   6  2 126.745      75.07 ; angle7
  4   3   6  2 132.512      88.71 ; angle1
  3   6   7  2 134.603     95.086 ; angle2
  3   6   8  2 134.830     95.835 ; angle3
  6   7   9  2 107.471     52.977 ; angle4
  7   9  10  2  92.772     48.315 ; angle5
  8   9  10  2  98.669     49.323 ; angle6

[ dihedrals ]
; dihedral1
 4  3  6  8 11 1.0 60.863 -14.475 -144.094 13.887 117.055 ; dihedral1

; dihedral2
 6  7  9 10 11 1.0 1.558 6.427 15.581 -5.711 -9.152 ; dihedral2

[ virtual_sites3 ]
 5  3  1  2 4 0.315480 0.106640 -0.010966

[ exclusions ]
 1  2  3  4  5  6  7  8 
 2  3  4  5  6  7  8 
 3  4  5  6  7  8  9 
 4  5  6  7  8 
 5  6  7  8  9 
 6  7  8  9 10 
 7  8  9 10 
 8  9 10 
 9 10 
