; This file was generated using the following command:
; /remote/au011/walter/programs/uvenv-ml/bin/ff_inter -f mapped.xtc -s mapped.tpr -i ../mapping.itp -temperature 298 -interactions comments -dists -plots -constraints 10000000 -max-dihedral 3
; 

; Please cite the following papers:
; {Brasnett, C; Fidlin, M; Duve, T; Thallmair, S; Marrink, S J; Grünewald, F;   {ChemRxiv  {2026;  {10.26434/chemrxiv.15001072/v1
; Kroon, P C; Grunewald, F; Barnoud, J; van Tilburg, M; Souza, P C; Wassenaar, T A; Marrink, S J;  elife 2024; 10.7554/elife.90627.2

[ moleculetype ]
ligand 1

[ atoms ]
 1 TN4a 1 LIG B1   1 0.0 36.0
 2 TC5  1 LIG B2   2 0.0 36.0
 3 TC5  1 LIG B3   3 0.0 36.0
 4 TC5  1 LIG B4   4 0.0 36.0
 5 TN5a 1 LIG B5   5 0.0 36.0
 6 TN2  1 LIG B6   6 0.0 36.0
 7 TC5  1 LIG B7   7 0.0 36.0
 8 TN6a 1 LIG B8   8 0.0 36.0
 9 TC5  1 LIG B9   9 0.0 36.0
10 TC5  1 LIG B10 10 0.0 36.0
11 TN6a 1 LIG B11 11 0.0 36.0
12 TN6a 1 LIG B12 12 0.0 36.0
13 TC5  1 LIG B13 13 0.0 36.0
14 TN5r 1 LIG B14 14 0.0 36.0
15 Q2p  1 LIG B15 15 1.0 72.0
16 SC3  1 LIG B16 16 0.0 54.0
17 TC5  1 LIG B17 17 0.0 36.0

[ bonds ]
  1   2  1 0.237    25000.000 ; bond6 (149386.909)
  3   5  1 0.227    25000.000 ; bond5 (121042.516)
  3   7  1 0.37     25000.000 ; bond9 (63040.11)
  5   8  1 0.313    25000.000 ; bond7 (176167.537)
  6   7  1 0.425    25000.000 ; bond8 (75971.511)
  6   9  1 0.219    25000.000 ; bond4 (110859.993)
 10  11  1 0.334    25000.000 ; bond10 (98632.733)
 10  12  1 0.334    25000.000 ; bond11 (91028.362)
 13  14  1 0.248    25000.000 ; bond3 (61836.239)
 14  16  1 0.219    25000.000 ; bond2 (74078.896)
 15  16  1 0.282    25000.000 ; bond1 (122232.898)

[ constraints ]
 2  3 1 0.193 100000
 2  4 1 0.222 100000
 3  4 1 0.222 100000
 5  6 1 0.288 100000
 5  7 1 0.251 100000
 6  8 1 0.248 100000
 7  8 1 0.268 100000
 9 10 1 0.193 100000
 9 17 1 0.222 100000
10 17 1 0.223 100000
11 12 1 0.229 100000
11 13 1 0.170 100000
12 13 1 0.170 100000

[ angles ]
  1   2   3  2 149.516    187.301 ; angle1
  1   2   4  2 146.700    159.913 ; angle2
  2   3   5  2 135.440     97.908 ; angle4
  4   3   5  2 159.735    401.794 ; angle3
  3   5   6  2 158.297    352.486 ; angle5
  5   6   9  2  99.013     49.415 ; angle6
  8   6   9  2 110.762     19.191 ; angle7
  6   9  10  2 149.180     183.63 ; angle8
  6   9  17  2 146.900    161.628 ; angle9
  9  10  11  2 169.502   1451.987 ; angle10
 12  10  17  2 165.275    746.075 ; angle11
 10  12  13  2 113.563      57.37 ; angle12
 11  13  14  2 109.164     54.024 ; angle14
 12  13  14  2 155.598    282.409 ; angle13
 13  14  16  2 132.223     87.897 ; angle15
 14  16  15  9   0.563   2000.000 ; angle16 (185.887 -> linear 0.219 & 0.282)

[ dihedrals ]
; dihedral1
 4  3  5  7 11 1.0 106.866 -73.029 -118.855 62.652 86.514 ; dihedral1

; dihedral2
 9 10 11 12 11 1.0 133.388 -201.044 73.739 205.997 -167.24 ; dihedral2

[ exclusions ]
 1  2  3  4  5  6  7  8 
 2  3  4  5  6  7  8  9 
 3  4  5  6  7  8  9 10 17 
 4  5  6  7  8  9 
 5  6  7  8  9 10 17 
 6  7  8  9 10 11 12 13 17 
 7  8  9 10 17 
 8  9 10 11 12 17 
 9 10 11 12 13 14 17 
10 11 12 13 14 16 17 
11 12 13 14 15 16 17 
12 13 14 15 16 17 
13 14 15 16 17 
14 15 16 17 
15 16 
