CHEMBL3402762_1 redocked
17
    1LIG     B1    1   1.600   2.553   5.344
    1LIG     B2    2   1.764   2.722   5.358
    1LIG     B3    3   1.877   2.836   5.465
    1LIG     B4    4   1.893   2.864   5.245
    1LIG     B5    5   1.950   2.946   5.641
    1LIG     B6    6   2.012   3.176   5.803
    1LIG     B7    7   1.966   2.762   5.810
    1LIG     B8    8   2.057   2.977   5.943
    1LIG     B9    9   2.213   3.234   5.752
    1LIG    B10   10   2.345   3.284   5.621
    1LIG    B11   11   2.345   3.262   5.304
    1LIG    B12   12   2.513   3.399   5.379
    1LIG    B13   13   2.466   3.349   5.223
    1LIG    B14   14   2.436   3.390   4.968
    1LIG    B15   15   2.449   3.114   4.603
    1LIG    B16   16   2.464   3.206   4.852
    1LIG    B17   17   2.417   3.269   5.832
10 10 10
