[ B1 ]
33 34
[ B2 ]
31 32 60 30 59
[ B3 ]
32 60 27 28 57
[ B4 ]
28 57 29 58 30 59
[ B5 ]
22 21
[ B6 ]
20 19 53 54
[ B7 ]
23 55 24 56
[ B8 ]
25 26
[ B9 ]
18 35 61 17 52
[ B10 ]
15 50 14 35 61
[ B11 ]
11 12 13 49
[ B12 ]
11 10 9 48
[ B13 ]
8 13 49 9 48
[ B14 ]
7 6 46 47
[ B15 ]
1 38 39 40 2 66 3 41 42 37 64 65
[ B16 ]
36 62 63 5 45 4 43 44
[ B17 ]
17 52 16 51 15 50
