CHEMBL3402758_10 redocked
15
    1LIG     B1    1   1.878   2.835   5.464
    1LIG     B2    2   1.753   2.701   5.345
    1LIG     B3    3   1.886   2.864   5.274
    1LIG     B4    4   1.950   2.946   5.641
    1LIG     B5    5   2.057   2.977   5.943
    1LIG     B6    6   1.967   2.762   5.811
    1LIG     B7    7   2.012   3.177   5.803
    1LIG     B8    8   2.212   3.233   5.752
    1LIG     B9    9   2.417   3.268   5.832
    1LIG    B10   10   2.345   3.284   5.621
    1LIG    B11   11   2.346   3.262   5.304
    1LIG    B12   12   2.514   3.398   5.380
    1LIG    B13   13   2.467   3.349   5.223
    1LIG    B14   14   2.458   3.307   4.945
    1LIG    B15   15   2.398   3.040   4.738
10 10 10
