; This file was generated using the following command:
; /remote/au011/walter/programs/uvenv-ml/bin/ff_inter -f mapped.xtc -s mapped.tpr -i ../mapping.itp -temperature 298 -interactions comments -dists -plots -constraints 10000000 -max-dihedral 3
; 

; Please cite the following papers:
; {Brasnett, C; Fidlin, M; Duve, T; Thallmair, S; Marrink, S J; Grünewald, F;   {ChemRxiv  {2026;  {10.26434/chemrxiv.15001072/v1
; Kroon, P C; Grunewald, F; Barnoud, J; van Tilburg, M; Souza, P C; Wassenaar, T A; Marrink, S J;  elife 2024; 10.7554/elife.90627.2

[ moleculetype ]
ligand 1

[ atoms ]
 1 TC5   1 LIG B1   1 0.0 36.0
 2 TC5   1 LIG B2   2 0.0 36.0
 3 TN6a  1 LIG B3   3 0.0 36.0
 4 TN5a  1 LIG B4   4 0.0 36.0
 5 TN6a  1 LIG B5   5 0.0 36.0
 6 TC5   1 LIG B6   6 0.0 36.0
 7 TN2   1 LIG B7   7 0.0 36.0
 8 TC5   1 LIG B8   8 0.0 36.0
 9 TC5   1 LIG B9   9 0.0 36.0
10 TC5   1 LIG B10 10 0.0 36.0
11 TN6a  1 LIG B11 11 0.0 36.0
12 TN6a  1 LIG B12 12 0.0 36.0
13 TC5   1 LIG B13 13 0.0 36.0
14 SN4ah 1 LIG B14 14 0.0 54.0
15 N3a    1 LIG B15 15 0.0 72.0

[ bonds ]
  1   4  1 0.228    25000.000 ; bond4 (128619.871)
  1   6  1 0.371    25000.000 ; bond7 (81061.472)
  4   5  1 0.312    25000.000 ; bond5 (137821.409)
  6   7  1 0.425    25000.000 ; bond6 (64383.929)
  7   8  1 0.22     25000.000 ; bond3 (120567.468)
 10  11  1 0.334    25000.000 ; bond8 (90075.822)
 10  12  1 0.334    25000.000 ; bond9 (98361.838)
 13  14  1 0.323    25000.000 ; bond2 (26286.163)
 14  15  1 0.358    11898.698 ; bond1

[ constraints ]
 1  2 1 0.219 100000
 1  3 1 0.192 100000
 2  3 1 0.222 100000
 4  6 1 0.251 100000
 4  7 1 0.288 100000
 5  6 1 0.268 100000
 5  7 1 0.248 100000
 8  9 1 0.222 100000
 8 10 1 0.193 100000
 9 10 1 0.223 100000
11 12 1 0.229 100000
11 13 1 0.169 100000
12 13 1 0.170 100000

[ angles ]
  2   1   4  2 161.690    488.392 ; angle1
  3   1   4  2 132.735     89.347 ; angle2
  1   4   7  2 157.445    327.624 ; angle3
  4   7   8  2 101.228     50.102 ; angle4
  5   7   8  2 103.361     50.921 ; angle5
  7   8   9  2 146.534    158.513 ; angle6
  7   8  10  2 149.415    186.185 ; angle7
  8  10  12  2 130.548     83.483 ; angle9
  9  10  12  2 165.487    767.546 ; angle8
 10  12  13  2 113.547     57.356 ; angle10
 11  13  14  2 120.044     64.326 ; angle12
 12  13  14  2 145.044    146.837 ; angle11
 13  14  15  2 127.481     76.544 ; angle13

[ dihedrals ]
; dihedral1
 4  7  8  9 11 1.0 18.19 -2.225 -4.825 4.007 20.979 ; dihedral1

; dihedral2
 3  1  4  6 11 1.0 23.22 -2.971 -17.496 10.557 4.693 ; dihedral2

; dihedral3
 8 10 11 12 11 1.0 602.435 -645.18 86.356 242.078 -73.045 ; dihedral3

[ exclusions ]
 1  2  3  4  5  6  7  8  9 10 
 2  3  4  5  6  7  8 
 3  4  5  6  7  8 
 4  5  6  7  8  9 10 
 5  6  7  8  9 10 11 12 
 6  7  8  9 10 
 7  8  9 10 11 12 13 
 8  9 10 11 12 13 14 
 9 10 11 12 13 14 
10 11 12 13 14 
11 12 13 14 15 
12 13 14 15 
13 14 15 
14 15 
