[ B1 ]
27 32 58 28 55
[ B2 ]
28 55 29 56 30 57
[ B3 ]
31 30 57 32 58
[ B4 ]
22 21
[ B5 ]
25 26
[ B6 ]
24 54 23 53
[ B7 ]
20 19 51 52
[ B8 ]
18 17 50 33 59
[ B9 ]
17 50 16 49 15 48
[ B10 ]
14 33 59 15 48
[ B11 ]
11 12 13 47
[ B12 ]
11 10 9 46
[ B13 ]
13 47 8 9 46
[ B14 ]
7 6 44 45 5 42 43
[ B15 ]
4 40 41 1 34 35 36 2 60 3 37 38 39
