13_3E64
10
    1LIG     B1    1   3.272   4.322   3.666
    1LIG     B2    2   3.549   4.233   3.515
    1LIG     B3    3   3.366   3.889   3.678
    1LIG     B4    4   3.548   3.907   3.563
    1LIG     B5    5   3.357   4.062   3.658
    1LIG     B6    6   3.254   3.738   3.768
    1LIG     B7    7   3.149   3.705   3.953
    1LIG     B8    8   3.187   3.538   3.721
    1LIG     B9    9   3.037   3.407   4.018
    1LIG    B10   10   3.312   3.284   4.074
10 10 10
