; This file was generated using the following command:
; /remote/au011/walter/programs/uvenv-ml/bin/ff_inter -f mapped.xtc -s mapped.tpr -i ../mapping.itp -temperature 298 -interactions comments -dists -plots -constraints 10000000 -max-dihedral 3
; 

; Please cite the following papers:
; Kroon, P C; Grunewald, F; Barnoud, J; van Tilburg, M; Souza, P C; Wassenaar, T A; Marrink, S J;  elife 2024; 10.7554/elife.90627.2
; {Brasnett, C; Fidlin, M; Duve, T; Thallmair, S; Marrink, S J; Grünewald, F;   {ChemRxiv  {2026;  {10.26434/chemrxiv.15001072/v1

[ moleculetype ]
ligand 1

[ atoms ]
 1 TN6d 1 LIG B1   1 0.0 48.0
 2 TN3  1 LIG B2   2 0.0 48.0
 3 TC5  1 LIG B3   3 0.0 48.0
 4 TC5  1 LIG B4   4 0.0 36.0
 5 TC5  1 LIG B5   5 0.0  0.0
 6 TC5  1 LIG B6   6 0.0 36.0
 7 TC5  1 LIG B7   7 0.0 36.0
 8 TC5  1 LIG B8   8 0.0 36.0
 9 P3   1 LIG B9   9 0.0 72.0
10 SC2  1 LIG B10 10 0.0 54.0

[ bonds ]
  1   4  1 0.501    25000.000 ; bond6 (96050.557)
  2   3  1 0.404    25000.000 ; bond5 (129990.555)
  3   6  1 0.221    25000.000 ; bond4 (90683.002)
  7   9  1 0.341    25000.000 ; bond2 (37552.56)
  8   9  1 0.365    24280.192 ; bond3
  9  10  1 0.3       21618.05 ; bond1

[ constraints ]
 1  2 1 0.328 100000
 1  3 1 0.443 100000
 2  4 1 0.330 100000
 3  4 1 0.216 100000
 6  7 1 0.216 100000
 6  8 1 0.216 100000
 7  8 1 0.289 100000

[ angles ]
  1   3   6  2 126.672     74.928 ; angle6
  4   3   6  2 133.267     90.908 ; angle1
  3   6   7  2 134.670     95.306 ; angle2
  3   6   8  2 134.694     95.385 ; angle3
  6   8   9  2 107.732      53.13 ; angle7
  7   9  10  2 109.830     16.085 ; angle4
  8   9  10  2  94.005     48.438 ; angle5

[ dihedrals ]
; dihedral1
 6  8  9 10 11 1.0 1.822 5.513 7.072 -1.892 1.948 ; dihedral1

; dihedral2
 4  3  6  8 11 1.0 65.213 4.965 -169.211 -3.755 137.221 ; dihedral2

[ virtual_sites3 ]
 5  3  1  2 4 0.315257 0.106843 -0.011000

[ exclusions ]
 1  2  3  4  5  6  7  8 
 2  3  4  5  6  7  8 
 3  4  5  6  7  8  9 
 4  5  6  7  8  9 
 5  6  7  8  9 
 6  7  8  9 10 
 7  8  9 10 
 8  9 10 
 9 10 
