; This file was generated using the following command:
; /remote/au011/walter/programs/uvenv-ml/bin/ff_inter -f mapped.xtc -s mapped.tpr -i ../mapping.itp -temperature 298 -interactions comments -dists -plots -constraints 10000000 -max-dihedral 3
; 

; Please cite the following papers:
; Kroon, P C; Grunewald, F; Barnoud, J; van Tilburg, M; Souza, P C; Wassenaar, T A; Marrink, S J;  elife 2024; 10.7554/elife.90627.2
; {Brasnett, C; Fidlin, M; Duve, T; Thallmair, S; Marrink, S J; Grünewald, F;   {ChemRxiv  {2026;  {10.26434/chemrxiv.15001072/v1

[ moleculetype ]
ligand 1

[ atoms ]
 1 TC5  1 LIG B1   1 0.0  36.0
 2 TC5  1 LIG B2   2 0.0  36.0
 3 SX4  1 LIG B3   3 0.0  36.0
 4 TN4a 1 LIG B4   4 0.0  36.0
 5 SN2a 1 LIG B5   5 0.0  90.0
 6 TC5  1 LIG B6   6 0.0   0.0
 7 TC5  1 LIG B7   7 0.0   0.0
 8 X4   1 LIG B8   8 0.0 108.0
 9 TN6  1 LIG B9   9 0.0   0.0
10 SP3  1 LIG B10 10 0.0  90.0
11 SX4  1 LIG B11 11 0.0  54.0

[ bonds ]
  1   5  1 0.265    17662.453 ; bond1
  2   4  1 0.237    25000.000 ; bond2 (155648.734)
 10  11  1 0.246    25000.000 ; bond3 (93813.999)

[ constraints ]
 1  2 1 0.192 100000
 1  3 1 0.228 100000
 2  3 1 0.228 100000
 5  8 1 0.367 100000
 5 10 1 0.507 100000
 8 10 1 0.557 100000

[ angles ]
  2   1   5  2 130.394     83.101 ; angle1
  3   1   5  2 139.258     35.448 ; angle2
  1   2   4  2 149.472    186.813 ; angle3
  3   2   4  2 146.031    154.397 ; angle4
  1   5   8  2 107.139     52.786 ; angle5
  1   5  10  2 151.806    215.942 ; angle6
  5  10  11  2  91.138     48.221 ; angle7
  8  10  11  2  90.168     48.202 ; angle8

[ dihedrals ]
; dihedral1
 3  1  5  8 11 1.0 10.554 12.481 10.27 -8.746 -6.412 ; dihedral1

[ virtual_sites3 ]
 6 10  5  8 4 0.892904 -0.341384 -0.106600
 7  8  5 10 4 0.320529 0.365825 0.130262
 9  8 10  5 4 0.501584 -0.410092 -0.514309

[ exclusions ]
 1  2  3  4  5  6  7  8  9 10 11 
 2  3  4  5  6  7  8  9 10 
 3  4  5  6  7  8  9 10 
 4  5  6  7 
 5  6  7  8  9 10 11 
 6  7  8  9 10 11 
 7  8  9 10 11 
 8  9 10 11 
 9 10 11 
10 11 
