15
11
    1LIG     B1    1   2.099  -0.064  -1.108
    1LIG     B2    2   1.944  -0.009  -1.008
    1LIG     B3    3   1.937  -0.223  -1.088
    1LIG     B4    4   1.830   0.158  -0.892
    1LIG     B5    5   2.332  -0.053  -1.077
    1LIG     B6    6   2.450  -0.115  -0.883
    1LIG     B7    7   2.571  -0.033  -1.066
    1LIG     B8    8   2.574   0.055  -1.331
    1LIG     B9    9   2.776   0.082  -1.160
    1LIG    B10   10   2.778  -0.150  -0.855
    1LIG    B11   11   2.799   0.089  -0.770
10 10 10
