; This file was generated using the following command:
; /remote/au011/walter/programs/uvenv-ml/bin/ff_inter -f mapped.xtc -s mapped.tpr -i ../mapping.itp -temperature 298 -interactions comments -dists -plots -constraints 10000000 -max-dihedral 3
; 

; Please cite the following papers:
; {Brasnett, C; Fidlin, M; Duve, T; Thallmair, S; Marrink, S J; Grünewald, F;   {ChemRxiv  {2026;  {10.26434/chemrxiv.15001072/v1
; Kroon, P C; Grunewald, F; Barnoud, J; van Tilburg, M; Souza, P C; Wassenaar, T A; Marrink, S J;  elife 2024; 10.7554/elife.90627.2

[ moleculetype ]
ligand 1

[ atoms ]
1 TN6d 1 LIG B1 1 0.0 48.0
2 TN3  1 LIG B2 2 0.0 48.0
3 TC5  1 LIG B3 3 0.0 48.0
4 TC5  1 LIG B4 4 0.0 36.0
5 TC5  1 LIG B5 5 0.0  0.0
6 TC6  1 LIG B6 6 0.0 36.0
7 TC4  1 LIG B7 7 0.0 36.0
8 SN4a 1 LIG B8 8 0.0 54.0

[ bonds ]
  1   4  1 0.501    25000.000 ; bond4 (84968.826)
  2   3  1 0.404    25000.000 ; bond3 (146703.782)
  3   6  1 0.238    25000.000 ; bond1 (105957.053)
  3   7  1 0.34     25000.000 ; bond2 (27630.789)

[ constraints ]
1 2 1 0.329 100000
1 3 1 0.443 100000
2 4 1 0.328 100000
3 4 1 0.216 100000
6 7 1 0.320 100000
6 8 1 0.300 100000
7 8 1 0.450 100000

[ angles ]
  1   3   7  2  89.613     48.204 ; angle3
  4   3   6  2 132.972      47.26 ; angle1
  3   6   8  2 165.059    725.133 ; angle2

[ dihedrals ]
; dihedral1
4 3 6 7 11 1.0 13.244 -9.74 -29.76 20.768 35.053 ; dihedral1

[ virtual_sites3 ]
5 3 1 2 4 0.316912 0.101307 -0.023592

[ exclusions ]
1 2 3 4 5 6 7 8 
2 3 4 5 6 7 8 
3 4 5 6 7 8 
4 5 6 7 8 
5 6 7 8 
6 7 8 
7 8 
