7
8
    1LIG     B1    1   3.232   4.290   3.649
    1LIG     B2    2   3.520   4.213   3.510
    1LIG     B3    3   3.356   3.866   3.682
    1LIG     B4    4   3.540   3.891   3.572
    1LIG     B5    5   3.334   4.036   3.657
    1LIG     B6    6   3.267   3.658   3.714
    1LIG     B7    7   3.197   3.838   3.968
    1LIG     B8    8   3.099   3.429   3.809
10 10 10
