18639-1
12
    1LIG     B1    1   2.295   1.112   2.995
    1LIG     B2    2   1.985   1.159   3.313
    1LIG     B3    3   2.143   0.957   3.157
    1LIG     B4    4   1.864   0.872   3.325
    1LIG     B5    5   2.137   0.720   3.096
    1LIG     B6    6   2.045   0.528   3.151
    1LIG     B7    7   2.184   0.426   3.009
    1LIG     B8    8   2.528   0.508   3.058
    1LIG     B9    9   2.452   0.734   2.933
    1LIG    B10   10   2.754   0.363   3.190
    1LIG    B11   11   2.391   0.302   3.166
    1LIG    B12   12   2.422   0.098   3.309
10 10 10
