; This file was generated using the following command:
; /remote/au011/walter/programs/uvenv-ml/bin/ff_inter -f mapped.xtc -s mapped.tpr -i ../mapping.itp -temperature 298 -interactions comments -dists -plots -constraints 10000000 -max-dihedral 3
; 

; Please cite the following papers:
; {Brasnett, C; Fidlin, M; Duve, T; Thallmair, S; Marrink, S J; Grünewald, F;   {ChemRxiv  {2026;  {10.26434/chemrxiv.15001072/v1
; Kroon, P C; Grunewald, F; Barnoud, J; van Tilburg, M; Souza, P C; Wassenaar, T A; Marrink, S J;  elife 2024; 10.7554/elife.90627.2

[ moleculetype ]
ligand 1

[ atoms ]
 1 SN4ah 1 LIG B1   1 0.0 54.0
 2 SN4a  1 LIG B2   2 0.0 54.0
 3 TN4a  1 LIG B3   3 0.0 36.0
 4 SN6d  1 LIG B4   4 0.0 54.0
 5 TN4d  1 LIG B5   5 0.0 36.0
 6 TP1a  1 LIG B6   6 0.0 36.0
 7 TC4   1 LIG B7   7 0.0 36.0
 8 TC5   1 LIG B8   8 0.0 36.0
 9 TN2a  1 LIG B9   9 0.0 36.0
10 SN3a  1 LIG B10 10 0.0 54.0
11 TC5   1 LIG B11 11 0.0 36.0
12 TN2a  1 LIG B12 12 0.0 36.0

[ bonds ]
  1   3  1 0.317    25000.000 ; bond7 (101788.825)
  2   5  1 0.515    25000.000 ; bond9 (72756.227)
  3   4  1 0.335    25000.000 ; bond8 (143264.634)
  5   6  1 0.217    25000.000 ; bond6 (177151.026)
  6   7  1 0.221    25000.000 ; bond5 (136213.558)
  8   9  1 0.315    13361.065 ; bond1
  8  10  1 0.276    25000.000 ; bond3 (161955.187)
 10  11  1 0.344    25000.000 ; bond4 (137429.525)
 11  12  1 0.261    25000.000 ; bond2 (80455.03)

[ constraints ]
 2  3 1 0.301 100000
 2  4 1 0.311 100000
 3  5 1 0.245 100000
 4  5 1 0.388 100000
 7  8 1 0.357 100000
 7 11 1 0.288 100000
 8 11 1 0.269 100000

[ angles ]
  1   3   2  2  90.861     48.213 ; angle1
  1   3   5  2 129.361     80.634 ; angle2
  3   5   6  2 138.898    111.533 ; angle3
  4   5   6  2  85.331     48.524 ; angle4
  5   6   7  2  92.652     48.305 ; angle5
  6   7   8  2  97.153     48.961 ; angle6
  6   7  11  2  93.887     48.425 ; angle7
  7   8   9  2  65.539     58.177 ; angle8
  7   8  10  2 137.179    104.332 ; angle9
  9   8  10  2 152.172    221.192 ; angle10
  7  11  12  2 132.349     88.249 ; angle11
 10  11  12  2  88.253     48.247 ; angle12

[ dihedrals ]
; dihedral1
 5  6  7  8 11 1.0 4.762 6.196 0.252 -6.762 -0.103 ; dihedral1

; dihedral2
 3  5  6  7 11 1.0 95.433 72.436 -48.492 -1.28 27.666 ; dihedral2

[ exclusions ]
 1  2  3  4  5  6  7 
 2  3  4  5  6  7 
 3  4  5  6  7 11 
 4  5  6  7 
 5  6  7  8 11 12 
 6  7  8  9 10 11 12 
 7  8  9 10 11 12 
 8  9 10 11 12 
 9 10 11 12 
10 11 12 
11 12 
