16
12
    1LIG     B1    1   0.033   1.101   2.444
    1LIG     B2    2  -0.237   1.176   2.409
    1LIG     B3    3  -0.104   0.978   2.758
    1LIG     B4    4   0.131   0.977   2.636
    1LIG     B5    5   0.242   0.816   2.829
    1LIG     B6    6   0.300   1.035   2.497
    1LIG     B7    7   0.527   0.945   2.341
    1LIG     B8    8   0.602   1.190   2.401
    1LIG     B9    9   0.724   1.074   2.288
    1LIG    B10   10   0.377   1.409   2.479
    1LIG    B11   11   0.467   1.545   2.616
    1LIG    B12   12   0.632   1.410   2.602
10 10 10
