155
11
    1LIG     B1    1   2.099  -0.063  -1.107
    1LIG     B2    2   1.945  -0.009  -1.008
    1LIG     B3    3   1.937  -0.223  -1.088
    1LIG     B4    4   1.829   0.158  -0.895
    1LIG     B5    5   2.333  -0.052  -1.077
    1LIG     B6    6   2.450  -0.115  -0.883
    1LIG     B7    7   2.572  -0.032  -1.066
    1LIG     B8    8   2.574   0.058  -1.327
    1LIG     B9    9   2.775   0.084  -1.158
    1LIG    B10   10   2.778  -0.149  -0.855
    1LIG    B11   11   2.799   0.089  -0.771
10 10 10
