CHEMBL3402744_300
12
    1LIG     B1    1   1.861   2.923   5.230
    1LIG     B2    2   1.770   2.685   5.296
    1LIG     B3    3   1.864   2.835   5.441
    1LIG     B4    4   1.926   2.926   5.633
    1LIG     B5    5   1.977   3.135   5.829
    1LIG     B6    6   2.020   2.921   5.941
    1LIG     B7    7   1.954   2.721   5.777
    1LIG     B8    8   2.172   3.206   5.776
    1LIG     B9    9   2.381   3.244   5.836
    1LIG    B10   10   2.287   3.274   5.639
    1LIG    B11   11   2.358   3.344   5.439
    1LIG    B12   12   2.501   3.404   5.190
10 10 10
