; This file was generated using the following command:
; /remote/au011/walter/programs/uvenv-ml/bin/ff_inter -f mapped.xtc -s mapped.tpr -i ../mapping.itp -temperature 298 -interactions comments -dists -plots -constraints 10000000 -max-dihedral 3
; 

; Please cite the following papers:
; {Brasnett, C; Fidlin, M; Duve, T; Thallmair, S; Marrink, S J; Grünewald, F;   {ChemRxiv  {2026;  {10.26434/chemrxiv.15001072/v1
; Kroon, P C; Grunewald, F; Barnoud, J; van Tilburg, M; Souza, P C; Wassenaar, T A; Marrink, S J;  elife 2024; 10.7554/elife.90627.2

[ moleculetype ]
ligand 1

[ atoms ]
 1 TC5  1 LIG B1   1 0.0 36.0
 2 TC5  1 LIG B2   2 0.0 36.0
 3 TC5  1 LIG B3   3 0.0 36.0
 4 SQ4p 1 LIG B4   4 1.0 54.0
 5 TP2a 1 LIG B5   5 0.0 48.0
 6 TN3  1 LIG B6   6 0.0  0.0
 7 SC3  1 LIG B7   7 0.0 66.0
 8 TP2a 1 LIG B8   8 0.0 48.0
 9 TN3d  1 LIG B9   9 0.0 36.0
10 TC5  1 LIG B10 10 0.0 36.0
11 TC5  1 LIG B11 11 0.0 36.0
12 TC5  1 LIG B12 12 0.0 36.0

[ bonds ]
  1   4  1 0.292     1431.489 ; bond2
  4   5  1 0.234    25000.000 ; bond1 (25455.018)
  8   9  1 0.231    25000.000 ; bond3 (25340.254)
  9  10  1 0.224    23513.036 ; bond4

[ constraints ]
 1  2 1 0.222 100000
 1  3 1 0.224 100000
 2  3 1 0.252 100000
 5  7 1 0.371 100000
 5  8 1 0.299 100000
 7  8 1 0.341 100000
10 11 1 0.222 100000
10 12 1 0.222 100000
11 12 1 0.252 100000

[ angles ]
  2   1   4  2 138.001    107.661 ; angle1
  3   1   4  2 140.590    119.592 ; angle2
  1   4   5  2  83.042      48.92 ; angle3
  4   5   7  2 104.503     51.427 ; angle10
  4   5   8  2 152.669    228.662 ; angle9
  5   8   9  2  83.104     48.907 ; angle8
  7   8   9  2  91.883     48.254 ; angle7
  8   9  10  2 118.725     13.629 ; angle4
  9  10  11  2 145.437    149.769 ; angle5
  9  10  12  2 144.184     140.76 ; angle6

[ dihedrals ]
; dihedral1
 3  1  4  5 11 1.0 22.047 18.303 -18.295 -26.204 11.166 ; dihedral1

; dihedral2
 8  9 10 11 11 1.0 31.856 -0.905 4.376 -0.877 -16.06 ; dihedral2

[ virtual_sites3 ]
 6  5  7  8 4 0.433595 0.211317 0.981291

[ exclusions ]
 1  2  3  4  5  6  7  8 
 2  3  4  5  6 
 3  4  5 
 4  5  6  7  8  9 
 5  6  7  8  9 10 11 12 
 6  7  8  9 10 11 12 
 7  8  9 10 
 8  9 10 11 12 
 9 10 11 12 
10 11 12 
11 12 
