5
12
    1LIG     B1    1   1.988  -1.426   2.478
    1LIG     B2    2   2.111  -1.269   2.573
    1LIG     B3    3   2.203  -1.448   2.421
    1LIG     B4    4   1.716  -1.549   2.369
    1LIG     B5    5   1.697  -1.329   2.280
    1LIG     B6    6   1.820  -1.202   2.147
    1LIG     B7    7   1.963  -1.292   2.024
    1LIG     B8    8   1.634  -1.206   2.015
    1LIG     B9    9   1.518  -0.998   2.045
    1LIG    B10   10   1.328  -1.076   2.147
    1LIG    B11   11   1.182  -1.025   2.307
    1LIG    B12   12   1.193  -1.248   2.191
10 10 10
