CAT-17i
11
    1LIG     B1    1   1.547   0.223  -0.193
    1LIG     B2    2   1.495   0.399  -0.255
    1LIG     B3    3   1.528   0.407   0.044
    1LIG     B4    4   1.577   0.018  -0.243
    1LIG     B5    5   1.645  -0.126  -0.401
    1LIG     B6    6   1.554  -0.171  -0.203
    1LIG     B7    7   1.292  -0.285  -0.114
    1LIG     B8    8   1.179  -0.250   0.124
    1LIG     B9    9   1.439  -0.234   0.259
    1LIG    B10   10   1.547  -0.279   0.018
    1LIG    B11   11   1.581  -0.526  -0.066
10 10 10
