CHEMBL3402748_5300
13
    1LIG     B1    1   1.735   2.981   5.263
    1LIG     B2    2   1.775   2.720   5.266
    1LIG     B3    3   1.837   2.865   5.431
    1LIG     B4    4   1.920   2.940   5.623
    1LIG     B5    5   2.030   2.914   5.924
    1LIG     B6    6   1.959   2.725   5.749
    1LIG     B7    7   1.977   3.135   5.829
    1LIG     B8    8   2.172   3.206   5.776
    1LIG     B9    9   2.381   3.244   5.836
    1LIG    B10   10   2.287   3.274   5.639
    1LIG    B11   11   2.211   3.324   5.411
    1LIG    B12   12   2.435   3.385   5.306
    1LIG    B13   13   2.193   3.388   5.136
10 10 10
