[ B1 ]
25 24 59 30 60
[ B2 ]
29 26 28 27
[ B3 ]
30 60 31 22
[ B4 ]
22 23 58 24 59
[ B5 ]
21 57 14 51
[ B6 ]
13 50 32 61
[ B7 ]
33 10 45
[ B8 ]
12 48 49 11 46 47
[ B9 ]
15 20 56 16 52
[ B10 ]
16 52 17 53 18 54
[ B11 ]
18 54 19 55 20 56
[ B12 ]
8 42 9 43 44
[ B13 ]
2 1 3 34
[ B14 ]
4 35 36 5 37 38 6 39 40 7 41
