; This file was generated using the following command:
; /remote/au011/walter/programs/uvenv-ml/bin/ff_inter -f mapped.xtc -s mapped.tpr -i ../mapping.itp -temperature 298 -interactions comments -dists -plots -constraints 10000000 -max-dihedral 3
; 

; Please cite the following papers:
; Kroon, P C; Grunewald, F; Barnoud, J; van Tilburg, M; Souza, P C; Wassenaar, T A; Marrink, S J;  elife 2024; 10.7554/elife.90627.2
; {Brasnett, C; Fidlin, M; Duve, T; Thallmair, S; Marrink, S J; Grünewald, F;   {ChemRxiv  {2026;  {10.26434/chemrxiv.15001072/v1

[ moleculetype ]
ligand 1

[ atoms ]
 1 SX4   1 LIG B1   1 0.0 36.0
 2 TC5   1 LIG B2   2 0.0 36.0
 3 TC5   1 LIG B3   3 0.0 36.0
 4 TN5a  1 LIG B4   4 0.0 36.0
 5 TC5   1 LIG B5   5 0.0 36.0
 6 TN6a  1 LIG B6   6 0.0 36.0
 7 TN2   1 LIG B7   7 0.0 36.0
 8 TC5   1 LIG B8   8 0.0 36.0
 9 TC5   1 LIG B9   9 0.0 36.0
10 TC5   1 LIG B10 10 0.0 36.0
11 SP1   1 LIG B11 11 0.0 54.0
12 SN4ah 1 LIG B12 12 0.0 54.0
13 N3a    1 LIG B13 13 0.0 72.0

[ bonds ]
  2   4  1 0.324     2397.118 ; bond6
  3   4  1 0.335     2524.973 ; bond7
  4   6  1 0.313    25000.000 ; bond8 (237584.689)
  5   7  1 0.425    25000.000 ; bond5 (68307.268)
  7   8  1 0.219    25000.000 ; bond4 (120512.561)
 10  11  1 0.231    25000.000 ; bond3 (124703.657)
 11  12  1 0.327    25000.000 ; bond2 (41247.932)
 12  13  1 0.35     10191.075 ; bond1

[ constraints ]
 1  2 1 0.245 100000
 1  3 1 0.245 100000
 2  3 1 0.288 100000
 4  5 1 0.252 100000
 4  7 1 0.290 100000
 5  6 1 0.267 100000
 6  7 1 0.247 100000
 8  9 1 0.221 100000
 8 10 1 0.191 100000
 9 10 1 0.221 100000

[ angles ]
  1   3   4  2 114.161     57.902 ; angle1
  2   4   5  2 104.500      9.371 ; angle11
  3   4   5  2 100.216      9.765 ; angle10
  4   7   8  2 100.561     49.878 ; angle3
  6   7   8  2 103.528     50.992 ; angle2
  7   8   9  2 146.494    158.179 ; angle5
  7   8  10  2 149.594     188.17 ; angle4
  8  10  11  2 144.835    130.581 ; angle7
  9  10  11  2 149.930    161.462 ; angle6
 10  11  12  9   0.586   2000.000 ; angle8 (175.176 -> linear 0.231 & 0.327)
 11  12  13  2 118.398     62.292 ; angle9

[ dihedrals ]
; dihedral1
 6  7  8 10 11 1.0 33.354 8.539 -63.34 -12.634 67.583 ; dihedral1

; dihedral2
 1  2  4  5 11 1.0 14.935 -5.719 -26.713 6.898 15.657 ; dihedral2

[ exclusions ]
 1  2  3  4  5  6  7 
 2  3  4  5  6  7 
 3  4  5  6  7 
 4  5  6  7  8  9 10 11 
 5  6  7  8  9 10 
 6  7  8  9 10 11 
 7  8  9 10 11 12 
 8  9 10 11 12 
 9 10 11 12 
10 11 12 13 
11 12 13 
12 13 
