CHEMBL3402764_90
13
    1LIG     B1    1   1.738   2.794   5.223
    1LIG     B2    2   1.758   2.698   5.447
    1LIG     B3    3   1.862   2.953   5.362
    1LIG     B4    4   1.912   2.927   5.649
    1LIG     B5    5   1.949   2.723   5.791
    1LIG     B6    6   2.028   2.922   5.949
    1LIG     B7    7   1.978   3.137   5.837
    1LIG     B8    8   2.172   3.206   5.775
    1LIG     B9    9   2.381   3.244   5.836
    1LIG    B10   10   2.287   3.274   5.639
    1LIG    B11   11   2.358   3.345   5.439
    1LIG    B12   12   2.512   3.361   5.148
    1LIG    B13   13   2.308   3.253   4.881
10 10 10
