19
12
    1LIG     B1    1  -0.237   1.176   2.410
    1LIG     B2    2   0.032   1.101   2.444
    1LIG     B3    3  -0.104   0.977   2.758
    1LIG     B4    4   0.131   0.977   2.636
    1LIG     B5    5   0.519   0.949   2.334
    1LIG     B6    6   0.725   1.069   2.286
    1LIG     B7    7   0.604   1.187   2.407
    1LIG     B8    8   0.530   1.348   2.527
    1LIG     B9    9   0.595   1.474   2.660
    1LIG    B10   10   0.398   1.519   2.567
    1LIG    B11   11   0.243   0.817   2.830
    1LIG    B12   12   0.300   1.036   2.497
10 10 10
