; This file was generated using the following command:
; /remote/au011/walter/programs/uvenv-ml/bin/ff_inter -f mapped.xtc -s mapped.tpr -i ../mapping.itp -temperature 298 -interactions comments -dists -plots -constraints 10000000 -max-dihedral 3
; 

; Please cite the following papers:
; {Brasnett, C; Fidlin, M; Duve, T; Thallmair, S; Marrink, S J; Grünewald, F;   {ChemRxiv  {2026;  {10.26434/chemrxiv.15001072/v1
; Kroon, P C; Grunewald, F; Barnoud, J; van Tilburg, M; Souza, P C; Wassenaar, T A; Marrink, S J;  elife 2024; 10.7554/elife.90627.2

[ moleculetype ]
ligand 1

[ atoms ]
1 SP2 1 LIG B1 1 0.0 78.0
2 TN2  1 LIG B2 2  0.0 36.0
3 TC5  1 LIG B3 3  0.0  0.0
4 TC5  1 LIG B4 4  0.0  0.0
5 TC5  1 LIG B5 5  0.0 60.0
6 TC5  1 LIG B6 6  0.0 60.0

[ bonds ]
  1   6  1 0.618    25000.000 ; bond1 (64995.704)

[ constraints ]
1 2 1 0.330 100000
1 5 1 0.648 100000
2 5 1 0.555 100000
2 6 1 0.399 100000
5 6 1 0.291 100000

[ virtual_sites3 ]
3 1 5 6 4 0.595507 -0.238476 0.041982
4 5 6 1 4 0.306041 0.330222 0.023216

[ exclusions ]
1 2 3 4 5 6 
2 3 4 5 6 
3 4 5 6 
4 5 6 
5 6 
