18630-1
10
    1LIG     B1    1   2.295   1.113   2.996
    1LIG     B2    2   1.983   1.158   3.313
    1LIG     B3    3   1.864   0.871   3.327
    1LIG     B4    4   2.142   0.956   3.157
    1LIG     B5    5   2.140   0.719   3.101
    1LIG     B6    6   2.039   0.529   3.142
    1LIG     B7    7   2.185   0.426   3.008
    1LIG     B8    8   2.482   0.537   2.966
    1LIG     B9    9   2.410   0.324   3.215
    1LIG    B10   10   2.722   0.416   3.157
10 10 10
