35
14
    1LIG     B1    1  -0.854   0.859  -1.104
    1LIG     B2    2  -0.762   0.977  -0.816
    1LIG     B3    3  -0.752   1.032  -1.118
    1LIG     B4    4  -0.746   1.117  -1.354
    1LIG     B5    5  -0.630   1.216  -1.090
    1LIG     B6    6  -0.586   1.411  -1.257
    1LIG     B7    7  -0.352   1.361  -1.174
    1LIG     B8    8  -0.165   1.356  -1.090
    1LIG     B9    9  -0.451   0.967  -0.810
    1LIG    B10   10  -0.576   1.203  -0.704
    1LIG    B11   11  -0.371   1.148  -0.728
    1LIG    B12   12  -0.208   1.330  -0.653
    1LIG    B13   13  -0.041   1.154  -0.718
    1LIG    B14   14   0.034   1.456  -0.598
10 10 10
