CHEMBL3402752_30000
13
    1LIG     B1    1   1.842   2.950   5.223
    1LIG     B2    2   1.747   2.713   5.285
    1LIG     B3    3   1.854   2.855   5.430
    1LIG     B4    4   1.924   2.937   5.623
    1LIG     B5    5   1.959   2.724   5.755
    1LIG     B6    6   2.028   2.916   5.927
    1LIG     B7    7   1.977   3.135   5.828
    1LIG     B8    8   2.172   3.205   5.775
    1LIG     B9    9   2.381   3.244   5.836
    1LIG    B10   10   2.287   3.273   5.638
    1LIG    B11   11   2.365   3.345   5.444
    1LIG    B12   12   2.540   3.434   5.219
    1LIG    B13   13   2.199   3.308   5.318
10 10 10
