; This file was generated using the following command:
; /remote/au011/walter/programs/uvenv-ml/bin/ff_inter -f mapped.xtc -s mapped.tpr -i ../mapping.itp -temperature 298 -interactions comments -dists -plots -constraints 10000000 -max-dihedral 3
; 

; Please cite the following papers:
; Kroon, P C; Grunewald, F; Barnoud, J; van Tilburg, M; Souza, P C; Wassenaar, T A; Marrink, S J;  elife 2024; 10.7554/elife.90627.2
; {Brasnett, C; Fidlin, M; Duve, T; Thallmair, S; Marrink, S J; Grünewald, F;   {ChemRxiv  {2026;  {10.26434/chemrxiv.15001072/v1

[ moleculetype ]
ligand 1

[ atoms ]
 1 TC5  1 LIG B1   1 0.0 36.0
 2 SX3  1 LIG B2   2 0.0 54.0
 3 SX4  1 LIG B3   3 0.0 54.0
 4 SN2a 1 LIG B4   4 0.0 90.0
 5 TC5  1 LIG B5   5 0.0  0.0
 6 TC5  1 LIG B6   6 0.0  0.0
 7 TC2  1 LIG B7   7 0.0 72.0
 8 TN6  1 LIG B8   8 0.0  0.0
 9 SP3  1 LIG B9   9 0.0 90.0
10 TX4  1 LIG B10 10 0.0 36.0

[ bonds ]
  1   4  1 0.266    14803.087 ; bond1
  9  10  1 0.243    25000.000 ; bond2 (82740.621)

[ constraints ]
 1  2 1 0.236 100000
 1  3 1 0.227 100000
 2  3 1 0.271 100000
 4  7 1 0.365 100000
 4  9 1 0.508 100000
 7  9 1 0.554 100000

[ angles ]
  2   1   4  2 137.283     31.845 ; angle1
  3   1   4  2 132.944     39.722 ; angle2
  1   4   7  2 104.721     30.678 ; angle3
  1   4   9  2 151.713    214.641 ; angle4
  4   9  10  2  90.253     48.203 ; angle5
  7   9  10  2  88.403     48.239 ; angle6

[ dihedrals ]
; dihedral1
 3  1  4  7 11 1.0 9.693 10.263 8.856 -6.193 -2.663 ; dihedral1

[ virtual_sites3 ]
 5  9  4  7 4 0.894801 -0.344081 -0.119927
 6  7  4  9 4 0.320823 0.365299 0.118517
 8  7  9  4 4 0.504746 -0.415266 -0.482140

[ exclusions ]
 1  2  3  4  5  6  7  8  9 10 
 2  3  4  5  6  7  8  9 
 3  4  5  6  7  8  9 
 4  5  6  7  8  9 10 
 5  6  7  8  9 10 
 6  7  8  9 10 
 7  8  9 10 
 8  9 10 
 9 10 
