61
10
    1LIG     B1    1   2.098  -0.063  -1.108
    1LIG     B2    2   1.919   0.027  -0.983
    1LIG     B3    3   1.937  -0.222  -1.088
    1LIG     B4    4   2.332  -0.052  -1.077
    1LIG     B5    5   2.449  -0.115  -0.883
    1LIG     B6    6   2.571  -0.033  -1.065
    1LIG     B7    7   2.575   0.060  -1.325
    1LIG     B8    8   2.778   0.080  -1.156
    1LIG     B9    9   2.778  -0.150  -0.855
    1LIG    B10   10   2.795   0.086  -0.769
10 10 10
