36
14
    1LIG     B1    1  -0.853   0.857  -1.104
    1LIG     B2    2  -0.754   1.030  -1.119
    1LIG     B3    3  -0.763   0.977  -0.817
    1LIG     B4    4  -0.639   1.213  -1.088
    1LIG     B5    5  -0.745   1.117  -1.354
    1LIG     B6    6  -0.576   1.406  -1.261
    1LIG     B7    7  -0.408   1.414  -1.075
    1LIG     B8    8  -0.156   1.484  -0.997
    1LIG     B9    9  -0.575   1.203  -0.704
    1LIG    B10   10  -0.451   0.966  -0.810
    1LIG    B11   11  -0.370   1.147  -0.729
    1LIG    B12   12  -0.205   1.328  -0.655
    1LIG    B13   13  -0.041   1.148  -0.718
    1LIG    B14   14   0.041   1.451  -0.601
10 10 10
