CHEMBL1078691
11
    1LIG     B1    1   1.193   0.037  -0.095
    1LIG     B2    2   1.187  -0.188  -0.008
    1LIG     B3    3   1.282  -0.290   0.094
    1LIG     B4    4   1.058  -0.357  -0.025
    1LIG     B5    5   1.296  -1.081   0.183
    1LIG     B6    6   1.334  -0.840   0.066
    1LIG     B7    7   1.224  -0.856   0.332
    1LIG     B8    8   1.190  -0.585   0.194
    1LIG     B9    9   1.479  -0.349   0.415
    1LIG    B10   10   1.532  -0.586   0.367
    1LIG    B11   11   1.437  -0.460   0.159
10 10 10
